# CIF file
data_findsym-output
_audit_creation_method FINDSYM

_chemical_name_mineral 'Fe12Zr2P7'
_chemical_formula_sum 'Fe12 P7 Zr2'

loop_
_publ_author_name
 'E. Ganglberger'
_journal_name_full_name
;
 Monatshefte f{\"u}r Chemie - Chemical Monthly
;
_journal_volume 99
_journal_year 1968
_journal_page_first 557
_journal_page_last 565
_publ_Section_title
;
 Die Kristallstruktur von Fe$_{12}$Zr$_{2}$P$_{7}$
;

# Found in Pearson's Crystal Data - Crystal Structure Database for Inorganic Compounds, 2013

_aflow_title 'Fe$_{12}$Zr$_{2}$P$_{7}$ Structure'
_aflow_proto 'A12B7C2_hP21_174_2j2k_ajk_cf'
_aflow_params 'a,c/a,x_{4},y_{4},x_{5},y_{5},x_{6},y_{6},x_{7},y_{7},x_{8},y_{8},x_{9},y_{9}'
_aflow_params_values '9.0004021308,0.399102242177,0.4309,0.3719,0.1189,0.2772,0.4163,0.1204,0.0495,0.4359,0.2232,0.124,0.2889,0.4096'
_aflow_Strukturbericht 'None'
_aflow_Pearson 'hP21'

_cell_length_a    9.0004021308
_cell_length_b    9.0004021308
_cell_length_c    3.5920806709
_cell_angle_alpha 90.0000000000
_cell_angle_beta  90.0000000000
_cell_angle_gamma 120.0000000000
 
_symmetry_space_group_name_H-M "P -6"
_symmetry_Int_Tables_number 174
 
loop_
_space_group_symop_id
_space_group_symop_operation_xyz
1 x,y,z
2 -y,x-y,z
3 -x+y,-x,z
4 -x+y,-x,-z
5 x,y,-z
6 -y,x-y,-z
 
loop_
_atom_site_label
_atom_site_type_symbol
_atom_site_symmetry_multiplicity
_atom_site_Wyckoff_label
_atom_site_fract_x
_atom_site_fract_y
_atom_site_fract_z
_atom_site_occupancy
P1  P    1 a 0.00000 0.00000 0.00000 1.00000
Zr1 Zr   1 c 0.33333 0.66667 0.00000 1.00000
Zr2 Zr   1 f 0.66667 0.33333 0.50000 1.00000
Fe1 Fe   3 j 0.43090 0.37190 0.00000 1.00000
Fe2 Fe   3 j 0.11890 0.27720 0.00000 1.00000
P2  P    3 j 0.41630 0.12040 0.00000 1.00000
Fe3 Fe   3 k 0.04950 0.43590 0.50000 1.00000
Fe4 Fe   3 k 0.22320 0.12400 0.50000 1.00000
P3  P    3 k 0.28890 0.40960 0.50000 1.00000
