# CIF file 

data_findsym-output
_audit_creation_method FINDSYM

_chemical_name_mineral ''
_chemical_formula_sum 'Mn12 Th'
 
loop_
_publ_author_name
 'John V. Florio'
 'R. E. Rundle'
 'A. I. Snow'
_journal_name_full
;
Acta Crystallographica
;
_journal_volume 5
_journal_year 1952
_journal_page_first 449
_journal_page_last 457
_publ_Section_title
;
 Compounds of thorium with transition metals. I. The thorium-manganese system
;

# Found in  Pearson's Handbook, Vol. IV, pp. 4396

_aflow_proto 'A12B_tI26_139_fij_a' 
_aflow_params 'a,c/a,x3,x4' 
_aflow_params_values '8.47,0.584415584416,0.361,0.278' 
_aflow_Strukturbericht 'D2_b' 
_aflow_Pearson 'tI26' 

_symmetry_space_group_name_Hall "-I 4 2"
_symmetry_space_group_name_H-M "I 4/m m m"
_symmetry_Int_Tables_number 139

_cell_length_a    8.47000
_cell_length_b    8.47000
_cell_length_c    4.95000
_cell_angle_alpha 90.00000
_cell_angle_beta  90.00000
_cell_angle_gamma 90.00000
 
loop_
_space_group_symop_id
_space_group_symop_operation_xyz
1 x,y,z
2 x,-y,-z
3 -x,y,-z
4 -x,-y,z
5 -y,-x,-z
6 -y,x,z
7 y,-x,z
8 y,x,-z
9 -x,-y,-z
10 -x,y,z
11 x,-y,z
12 x,y,-z
13 y,x,z
14 y,-x,-z
15 -y,x,-z
16 -y,-x,z
17 x+1/2,y+1/2,z+1/2
18 x+1/2,-y+1/2,-z+1/2
19 -x+1/2,y+1/2,-z+1/2
20 -x+1/2,-y+1/2,z+1/2
21 -y+1/2,-x+1/2,-z+1/2
22 -y+1/2,x+1/2,z+1/2
23 y+1/2,-x+1/2,z+1/2
24 y+1/2,x+1/2,-z+1/2
25 -x+1/2,-y+1/2,-z+1/2
26 -x+1/2,y+1/2,z+1/2
27 x+1/2,-y+1/2,z+1/2
28 x+1/2,y+1/2,-z+1/2
29 y+1/2,x+1/2,z+1/2
30 y+1/2,-x+1/2,-z+1/2
31 -y+1/2,x+1/2,-z+1/2
32 -y+1/2,-x+1/2,z+1/2
 
loop_
_atom_site_label
_atom_site_type_symbol
_atom_site_symmetry_multiplicity
_atom_site_Wyckoff_label
_atom_site_fract_x
_atom_site_fract_y
_atom_site_fract_z
_atom_site_occupancy
Th1 Th   2 a 0.00000 0.00000 0.00000 1.00000
Mn1 Mn   8 f 0.25000 0.25000 0.25000 1.00000
Mn2 Mn   8 i 0.36100 0.00000 0.00000 1.00000
Mn3 Mn   8 j 0.27800 0.50000 0.00000 1.00000
