# CIF file
data_findsym-output
_audit_creation_method FINDSYM

_chemical_name_mineral 'Rb2TiCu2Se4'
_chemical_formula_sum 'Cu2 Rb2 S4 Ti'

loop_
_publ_author_name
 'F. Q. Huang'
 'J. A. Ibers'
_journal_name_full_name
;
 Inorganic Chemistry
;
_journal_volume 40
_journal_year 2001
_journal_page_first 2602
_journal_page_last 2607
_publ_Section_title
;
 New Layered Materials: Syntheses, Structures, and Optical Properties of K$_{2}$TiCu$_{2}$S$_{4}$, Rb$_{2}$TiCu$_{2}$S$_{4}$, Rb$_{2}$TiAg$_{2}$S$_{4}$, Cs$_{2}$TiAg$_{2}$S$_{4}$, and Cs$_{2}$TiCu$_{2}$Se$_{4}$
;

_aflow_title 'Rb$_{2}$TiCu$_{2}$S$_{4}$ Structure'
_aflow_proto 'A2B2C4D_tP18_132_e_i_o_d'
_aflow_params 'a,c/a,x_{3},x_{4},z_{4}'
_aflow_params_values '5.6046,2.34700067801,0.2369,0.26316,0.34803'
_aflow_Strukturbericht 'None'
_aflow_Pearson 'tP18'

_symmetry_space_group_name_H-M "P 42/m 2/c 2/m"
_symmetry_Int_Tables_number 132
 
_cell_length_a    5.60460
_cell_length_b    5.60460
_cell_length_c    13.15400
_cell_angle_alpha 90.00000
_cell_angle_beta  90.00000
_cell_angle_gamma 90.00000
 
loop_
_space_group_symop_id
_space_group_symop_operation_xyz
1 x,y,z
2 x,-y,-z+1/2
3 -x,y,-z+1/2
4 -x,-y,z
5 -y,-x,-z
6 -y,x,z+1/2
7 y,-x,z+1/2
8 y,x,-z
9 -x,-y,-z
10 -x,y,z+1/2
11 x,-y,z+1/2
12 x,y,-z
13 y,x,z
14 y,-x,-z+1/2
15 -y,x,-z+1/2
16 -y,-x,z
 
loop_
_atom_site_label
_atom_site_type_symbol
_atom_site_symmetry_multiplicity
_atom_site_Wyckoff_label
_atom_site_fract_x
_atom_site_fract_y
_atom_site_fract_z
_atom_site_occupancy
Ti1 Ti   2 d 0.50000 0.50000 0.25000 1.00000
Cu1 Cu   4 e 0.00000 0.50000 0.25000 1.00000
Rb1 Rb   4 i 0.23690 0.23690 0.00000 1.00000
S1  S    8 o 0.26316 0.26316 0.34803 1.00000
