# CIF file 

data_findsym-output
_audit_creation_method FINDSYM

_chemical_name_mineral 'beta indium sulfide'
_chemical_formula_sum 'In2 S3'
 
loop_
_publ_author_name
 'Niyum S Rampersadh'
 'Andrew M Venter'
 'David G Billing'
_journal_name_full
;
Physica B
;
_journal_volume 350
_journal_year 2004
_journal_page_first e383
_journal_page_last e385
_publ_Section_title
;
 Rietveld refinement of In$_2$S$_3$ using neutron and X-ray powder diffraction data
;

_aflow_proto 'A2B3_tI80_141_ceh_3h' 
_aflow_params 'a,c/a,z2,y3,z3,y4,z4,y5,z5,y6,z6' 
_aflow_params_values '7.5937,4.26037373086,0.2044,0.5201,0.3324,0.516,0.2547,0.494,0.0859,0.4667,0.4164' 
_aflow_Strukturbericht 'None' 
_aflow_Pearson 'tI80' 

_symmetry_space_group_name_Hall "-I 4bd 2"
_symmetry_space_group_name_H-M "I 41/a m d:2"
_symmetry_Int_Tables_number 141

_cell_length_a    7.59370
_cell_length_b    7.59370
_cell_length_c    32.35200
_cell_angle_alpha 90.00000
_cell_angle_beta  90.00000
_cell_angle_gamma 90.00000
 
loop_
_space_group_symop_id
_space_group_symop_operation_xyz
1 x,y,z
2 x,-y,-z
3 -x,y+1/2,-z
4 -x,-y+1/2,z
5 -y+1/4,-x+1/4,-z+3/4
6 -y+1/4,x+3/4,z+1/4
7 y+3/4,-x+3/4,z+1/4
8 y+3/4,x+1/4,-z+3/4
9 -x,-y,-z
10 -x,y,z
11 x,-y+1/2,z
12 x,y+1/2,-z
13 y+3/4,x+3/4,z+1/4
14 y+3/4,-x+1/4,-z+3/4
15 -y+1/4,x+1/4,-z+3/4
16 -y+1/4,-x+3/4,z+1/4
17 x+1/2,y+1/2,z+1/2
18 x+1/2,-y+1/2,-z+1/2
19 -x+1/2,y,-z+1/2
20 -x+1/2,-y,z+1/2
21 -y+3/4,-x+3/4,-z+1/4
22 -y+3/4,x+1/4,z+3/4
23 y+1/4,-x+1/4,z+3/4
24 y+1/4,x+3/4,-z+1/4
25 -x+1/2,-y+1/2,-z+1/2
26 -x+1/2,y+1/2,z+1/2
27 x+1/2,-y,z+1/2
28 x+1/2,y,-z+1/2
29 y+1/4,x+1/4,z+3/4
30 y+1/4,-x+3/4,-z+1/4
31 -y+3/4,x+3/4,-z+1/4
32 -y+3/4,-x+1/4,z+3/4
 
loop_
_atom_site_label
_atom_site_type_symbol
_atom_site_symmetry_multiplicity
_atom_site_Wyckoff_label
_atom_site_fract_x
_atom_site_fract_y
_atom_site_fract_z
_atom_site_occupancy
In1 In   8 c 0.00000 0.00000 0.00000 1.00000
In2 In   8 e 0.00000 0.25000 0.20440 1.00000
In3 In  16 h 0.00000 0.52010 0.33240 1.00000
S1  S   16 h 0.00000 0.51600 0.25470 1.00000
S2  S   16 h 0.00000 0.49400 0.08590 1.00000
S3  S   16 h 0.00000 0.46670 0.41640 1.00000
