# CIF file
_chemical_name_mineral 'Sheldrickite'

data_findsym-output
_audit_creation_method FINDSYM

_chemical_name_mineral 'Sheldrickite'
_chemical_formula_sum 'C2 Ca3 F3 Na O7'

loop_
_publ_author_name
 'J. D. Grice'
 'R. A. Gault'
 'J. {Van Velthuizen}'
_journal_name_full_name
;
 Canadian Mineralogist
;
_journal_volume 35
_journal_year 1997
_journal_page_first 181
_journal_page_last 187
_publ_Section_title
;
 Sheldrickite, a new sodium-calcium-fluorocarbonate mineral species from Mont Saint-Hilaire, Quebec
;

# Found in Pearson's Crystal Data - Crystal Structure Database for Inorganic Compounds, 2013

_aflow_title 'Sheldrickite (NaCa$_{3}$[CO$_{3}$]$_{2}$F$_{3}$[H$_{2}$O]) Structure'
_aflow_proto 'A2B3C3DE7_hP48_145_2a_3a_3a_a_7a'
_aflow_params 'a,c/a,x_{1},y_{1},z_{1},x_{2},y_{2},z_{2},x_{3},y_{3},z_{3},x_{4},y_{4},z_{4},x_{5},y_{5},z_{5},x_{6},y_{6},z_{6},x_{7},y_{7},z_{7},x_{8},y_{8},z_{8},x_{9},y_{9},z_{9},x_{10},y_{10},z_{10},x_{11},y_{11},z_{11},x_{12},y_{12},z_{12},x_{13},y_{13},z_{13},x_{14},y_{14},z_{14},x_{15},y_{15},z_{15},x_{16},y_{16},z_{16}'
_aflow_params_values '6.7260126433,2.23669342849,0.567,0.317,0.168,0.432,0.752,0.169,0.6161,-0.0009,0.0,-0.0011,0.6284,0.0045,0.3706,0.371,-0.0043,-0.003,0.266,0.01,0.271,0.002,-0.005,0.73,0.734,-0.02,0.001,0.297,0.165,0.664,0.348,0.09,0.668,0.333,0.238,0.353,0.273,0.167,0.321,0.654,-0.092,0.336,0.666,0.761,0.646,-0.079,0.165,0.203,0.202,0.831'
_aflow_Strukturbericht 'None'
_aflow_Pearson 'hP48'

_cell_length_a    6.7260126433
_cell_length_b    6.7260126433
_cell_length_c    15.0440282792
_cell_angle_alpha 90.0000000000
_cell_angle_beta  90.0000000000
_cell_angle_gamma 120.0000000000
 
_symmetry_space_group_name_H-M "P 32"
_symmetry_Int_Tables_number 145
 
loop_
_space_group_symop_id
_space_group_symop_operation_xyz
1 x,y,z
2 -y,x-y,z+2/3
3 -x+y,-x,z+1/3
 
loop_
_atom_site_label
_atom_site_type_symbol
_atom_site_symmetry_multiplicity
_atom_site_Wyckoff_label
_atom_site_fract_x
_atom_site_fract_y
_atom_site_fract_z
_atom_site_occupancy
C1   C    3 a 0.56700  0.31700  0.16800  1.00000
C2   C    3 a 0.43200  0.75200  0.16900  1.00000
Ca1  Ca   3 a 0.61610  -0.00090 0.00000  1.00000
Ca2  Ca   3 a -0.00110 0.62840  0.00450  1.00000
Ca3  Ca   3 a 0.37060  0.37100  -0.00430 1.00000
F1   F    3 a -0.00300 0.26600  0.01000  1.00000
F2   F    3 a 0.27100  0.00200  -0.00500 1.00000
F3   F    3 a 0.73000  0.73400  -0.02000 1.00000
Na1  Na   3 a 0.00100  0.29700  0.16500  1.00000
O1   O    3 a 0.66400  0.34800  0.09000  1.00000
O2   O    3 a 0.66800  0.33300  0.23800  1.00000
O3   O    3 a 0.35300  0.27300  0.16700  1.00000
O4   O    3 a 0.32100  0.65400  -0.09200 1.00000
O5   O    3 a 0.33600  0.66600  0.76100  1.00000
O6   O    3 a 0.64600  -0.07900 0.16500  1.00000
O7 O    3 a 0.20300  0.20200  0.83100  1.00000
