# CIF file
data_findsym-output
_audit_creation_method FINDSYM

_chemical_name_mineral 'Beryl'
_chemical_formula_sum 'Al2 Be3 O18 Si6'

loop_
_publ_author_name
 'R. M. Hazen'
 'A. Y. Au'
 'L. W. Finger'
_journal_name_full_name
;
 American Mineralogist
;
_journal_volume 71
_journal_year 1986
_journal_page_first 977
_journal_page_last 984
_publ_Section_title
;
 High-pressure crystal chemistry of beryl (Be$_{3}$Al$_{2}$Si$_{6}$O$_{18}$) and euclase (BeAlSiO$_{4}$OH)
;

# Found in The American Mineralogist Crystal Structure Database, 2003

_aflow_title 'Beryl (Be$_{3}$Al$_{2}$Si$_{6}$O$_{18}$, $G3_{1}$) Structure'
_aflow_proto 'A2B3C18D6_hP58_192_c_f_lm_l'
_aflow_params 'a,c/a,x_{3},y_{3},x_{4},y_{4},x_{5},y_{5},z_{5}'
_aflow_params_values '9.214,0.997829390059,0.3103,0.2369,0.3876,0.1159,0.4985,0.1456,0.1453'
_aflow_Strukturbericht '$G3_{1}$'
_aflow_Pearson 'hP58'

_symmetry_space_group_name_H-M "P 6/m 2/c 2/c"
_symmetry_Int_Tables_number 192
 
_cell_length_a    9.21400
_cell_length_b    9.21400
_cell_length_c    9.19400
_cell_angle_alpha 90.00000
_cell_angle_beta  90.00000
_cell_angle_gamma 120.00000
 
loop_
_space_group_symop_id
_space_group_symop_operation_xyz
1 x,y,z
2 x-y,x,z
3 -y,x-y,z
4 -x,-y,z
5 -x+y,-x,z
6 y,-x+y,z
7 x-y,-y,-z+1/2
8 x,x-y,-z+1/2
9 y,x,-z+1/2
10 -x+y,y,-z+1/2
11 -x,-x+y,-z+1/2
12 -y,-x,-z+1/2
13 -x,-y,-z
14 -x+y,-x,-z
15 y,-x+y,-z
16 x,y,-z
17 x-y,x,-z
18 -y,x-y,-z
19 -x+y,y,z+1/2
20 -x,-x+y,z+1/2
21 -y,-x,z+1/2
22 x-y,-y,z+1/2
23 x,x-y,z+1/2
24 y,x,z+1/2
 
loop_
_atom_site_label
_atom_site_type_symbol
_atom_site_symmetry_multiplicity
_atom_site_Wyckoff_label
_atom_site_fract_x
_atom_site_fract_y
_atom_site_fract_z
_atom_site_occupancy
Al1 Al   4 c 0.33333 0.66667 0.25000 1.00000
Be1 Be   6 f 0.50000 0.00000 0.25000 1.00000
O1  O   12 l 0.31030 0.23690 0.00000 1.00000
Si1 Si  12 l 0.38760 0.11590 0.00000 1.00000
O2  O   24 m 0.49850 0.14560 0.14530 1.00000
