# CIF file
data_findsym-output
_audit_creation_method FINDSYM

_chemical_name_mineral 'NaGdCu2F8'
_chemical_formula_sum 'Cu2 F8 Gd Na'

loop_
_publ_author_name
 'C. {De Nada\"i}'
 'A. Demourgues'
 'L. Lozano'
 'P. Gravereau'
 'J. Grannec'
_journal_name_full_name
;
 Journal of Materials Chemistry
;
_journal_volume 8
_journal_year 1998
_journal_page_first 2487
_journal_page_last 2491
_publ_Section_title
;
 Structural investigations of new copper fluorides Na$RE$Cu$_{2}$F$_{8}$ ($RE^{3+}$ = Sm$^{3+}$, Eu$^{3+}$, Gd$^{3+}$, Y$^{3+}$, Er$^{3+}$, Yb$^{3+}$)
;

# Found in Pearson's Crystal Data - Crystal Structure Database for Inorganic Compounds, 2013

_aflow_title 'NaGdCu$_{2}$F$_{8}$ Structure'
_aflow_proto 'A2B8CD_tI24_97_d_k_a_b'
_aflow_params 'a,c/a,x_{4},y_{4},z_{4}'
_aflow_params_values '5.4068544677,1.92010356944,0.1697,0.3128,0.1237'
_aflow_Strukturbericht 'None'
_aflow_Pearson 'tI24'

_cell_length_a    5.4068544677
_cell_length_b    5.4068544677
_cell_length_c    10.3817205629
_cell_angle_alpha 90.0000000000
_cell_angle_beta  90.0000000000
_cell_angle_gamma 90.0000000000
 
_symmetry_space_group_name_H-M "I 4 2 2"
_symmetry_Int_Tables_number 97
 
loop_
_space_group_symop_id
_space_group_symop_operation_xyz
1 x,y,z
2 x,-y,-z
3 -x,y,-z
4 -x,-y,z
5 -y,-x,-z
6 -y,x,z
7 y,-x,z
8 y,x,-z
9 x+1/2,y+1/2,z+1/2
10 x+1/2,-y+1/2,-z+1/2
11 -x+1/2,y+1/2,-z+1/2
12 -x+1/2,-y+1/2,z+1/2
13 -y+1/2,-x+1/2,-z+1/2
14 -y+1/2,x+1/2,z+1/2
15 y+1/2,-x+1/2,z+1/2
16 y+1/2,x+1/2,-z+1/2
 
loop_
_atom_site_label
_atom_site_type_symbol
_atom_site_symmetry_multiplicity
_atom_site_Wyckoff_label
_atom_site_fract_x
_atom_site_fract_y
_atom_site_fract_z
_atom_site_occupancy
Gd1 Gd   2 a 0.00000 0.00000 0.00000 1.00000
Na1 Na   2 b 0.00000 0.00000 0.50000 1.00000
Cu1 Cu   4 d 0.00000 0.50000 0.25000 1.00000
F1  F   16 k 0.16970 0.31280 0.12370 1.00000
