# CIF file
data_findsym-output
_audit_creation_method FINDSYM

_chemical_name_mineral 'alpha-RbPr[MoO4]2'
_chemical_formula_sum 'Mo2 O8 Pr Rb'

loop_
_publ_author_name
 'R. F. Klevtsova'
 'P. V. Klevtsov'
_journal_name_full_name
;
 Kristallografiya, English title: Crystallography Reports
;
_journal_volume 15
_journal_year 1970
_journal_page_first 466
_journal_page_last 470
_publ_Section_title
;
 Polymorphism of rubidium-praseodymium molybdate, RbPr(MoO$_{4}$)$_{2}$
;

# Found in Pearson's Crystal Data - Crystal Structure Database for Inorganic Compounds, 2013

_aflow_title '$\alpha$-RbPr[MoO$_{4}$]$_{2}$ Structure'
_aflow_proto 'A2B8CD_oP24_48_k_2m_d_b'
_aflow_params 'a,b/a,c/a,z_{3},x_{4},y_{4},z_{4},x_{5},y_{5},z_{5}'
_aflow_params_values '6.3302356554,1.0,1.50710900473,0.4978,0.56,0.629,0.114,0.642,0.558,0.601'
_aflow_Strukturbericht 'None'
_aflow_Pearson 'oP24'

_cell_length_a    6.3302356554
_cell_length_b    6.3302356554
_cell_length_c    9.5403551583
_cell_angle_alpha 90.0000000000
_cell_angle_beta  90.0000000000
_cell_angle_gamma 90.0000000000
 
_symmetry_space_group_name_H-M "P 2/n 2/n 2/n (origin choice 2)"
_symmetry_Int_Tables_number 48
 
loop_
_space_group_symop_id
_space_group_symop_operation_xyz
1 x,y,z
2 x,-y+1/2,-z+1/2
3 -x+1/2,y,-z+1/2
4 -x+1/2,-y+1/2,z
5 -x,-y,-z
6 -x,y+1/2,z+1/2
7 x+1/2,-y,z+1/2
8 x+1/2,y+1/2,-z
 
loop_
_atom_site_label
_atom_site_type_symbol
_atom_site_symmetry_multiplicity
_atom_site_Wyckoff_label
_atom_site_fract_x
_atom_site_fract_y
_atom_site_fract_z
_atom_site_occupancy
Rb1 Rb   2 b 0.75000 0.25000 0.25000 1.00000
Pr1 Pr   2 d 0.25000 0.75000 0.25000 1.00000
Mo1 Mo   4 k 0.25000 0.25000 0.49780 1.00000
O1  O    8 m 0.56000 0.62900 0.11400 1.00000
O2  O    8 m 0.64200 0.55800 0.60100 1.00000
