# CIF file 

data_findsym-output
_audit_creation_method FINDSYM

_chemical_name_mineral 'Brookite'
_chemical_formula_sum 'Ti O2'
 
loop_
_publ_author_name
 'E. P. Meagher'
 'G. A. Lager'
_journal_name_full
;
Canadian Mineralogist
;
_journal_volume 17
_journal_year 1979
_journal_page_first 77
_journal_page_last 85
_publ_Section_title
;
 Polyhedral thermal expansion in the TiO$_2$ polymorphs; refinement of the crystal structures of rutile and brookite at high temperature
;

_aflow_proto 'A2B_oP24_61_2c_c' 
_aflow_params 'a,b/a,c/a,x1,y1,z1,x2,y2,z2,x3,y3,z3' 
_aflow_params_values '9.174,0.375953782429,0.560061042075,0.0095,0.1491,0.1835,0.2314,0.111,0.5366,0.1289,0.0972,0.8628'
_aflow_Strukturbericht 'C21' 
_aflow_Pearson 'oP24' 

_symmetry_space_group_name_Hall "-P 2ac 2ab"
_symmetry_space_group_name_H-M "P b c a"
_symmetry_Int_Tables_number 61

_cell_length_a    9.17400
_cell_length_b    3.44900
_cell_length_c    5.13800
_cell_angle_alpha 90.00000
_cell_angle_beta  90.00000
_cell_angle_gamma 90.00000
 
loop_
_space_group_symop_id
_space_group_symop_operation_xyz
1 x,y,z
2 x+1/2,-y+1/2,-z
3 -x,y+1/2,-z+1/2
4 -x+1/2,-y,z+1/2
5 -x,-y,-z
6 -x+1/2,y+1/2,z
7 x,-y+1/2,z+1/2
8 x+1/2,y,-z+1/2
 
loop_
_atom_site_label
_atom_site_type_symbol
_atom_site_symmetry_multiplicity
_atom_site_Wyckoff_label
_atom_site_fract_x
_atom_site_fract_y
_atom_site_fract_z
_atom_site_occupancy
O1  O    8 c 0.00950 0.14910 0.18350 1.00000
O2  O    8 c 0.23140 0.11100 0.53660 1.00000
Ti1 Ti   8 c 0.12890 0.09720 0.86280 1.00000
