# CIF file 

data_findsym-output
_audit_creation_method FINDSYM

_chemical_name_mineral 'Low Tridymite'
_chemical_formula_sum 'Si O2'
 
loop_
_publ_author_name
 'Wayne A. Dollase'
 'Werner H. Baur'
_journal_name_full
;
American Mineralogist
;
_journal_volume 61
_journal_year 1976
_journal_page_first 971
_journal_page_last 978
_publ_Section_title
;
 The superstructure of meteoritic low tridymite solved by computer simulation
;

_aflow_proto 'A2B_mC144_9_24a_12a' 
_aflow_params 'a,b/a,c/a,\beta,x1,y1,z1,x2,y2,z2,x3,y3,z3,x4,y4,z4,x5,y5,z5,x6,y6,z6,x7,y7,z7,x8,y8,z8,x9,y9,z9,x10,y10,z10,x11,y11,z11,x12,y12,z12,x13,y13,z13,x14,y14,z14,x15,y15,z15,x16,y16,z16,x17,y17,z17,x18,y18,z18,x19,y19,z19,x20,y20,z20,x21,y21,z21,x22,y22,z22,x23,y23,z23,x24,y24,z24,x25,y25,z25,x26,y26,z26,x27,y27,z27,x28,y28,z28,x29,y29,z29,x30,y30,z30,x31,y31,z31,x32,y32,z32,x33,y33,z33,x34,y34,z34,x35,y35,z35,x36,y36,z36' 
_aflow_params_values '18.524,0.270092852516,1.28535953358,105.82,0.5749,0.351,0.8182,0.0707,0.34,0.8476,0.7315,0.138,0.4851,0.2509,0.144,0.5152,0.4155,0.352,0.6741,-0.0873,0.352,0.6434,0.8773,0.164,-0.0787,0.416,0.168,-0.0639,0.7741,0.145,0.7538,0.2336,0.143,0.7402,0.6195,0.341,0.5847,0.0811,0.343,0.5661,-0.0034,0.011,0.6062,0.3533,0.489,0.5665,0.6498,0.005,0.6711,0.1524,0.496,0.7805,0.8636,0.499,0.7328,0.3361,0.003,0.8333,0.0052,0.493,0.7398,0.1369,0.011,-0.0732,0.4927,0.492,0.8868,0.5,0.468,0.5,0.2252,0.491,0.5898,0.2744,0.021,-0.0845,0.0507,0.041,0.5642,0.2036,0.447,0.7347,-0.0802,0.049,0.6225,0.5751,0.043,0.7955,0.4247,0.048,0.6971,0.2643,0.444,0.5386,0.8023,0.449,0.7661,0.6453,0.041,0.6027,0.8531,0.463,-0.0984,0.4493,0.466,-0.0642,0.2244,0.059,-0.0395,0.0697,0.049,0.8702'
_aflow_Strukturbericht 'None' 
_aflow_Pearson 'mC144' 

_symmetry_space_group_name_Hall "C -2yc"
_symmetry_space_group_name_H-M "C 1 c 1"
_symmetry_Int_Tables_number 9

_cell_length_a    18.52400
_cell_length_b    5.00320
_cell_length_c    23.81000
_cell_angle_alpha 90.00000
_cell_angle_beta  105.82000
_cell_angle_gamma 90.00000
 
loop_
_space_group_symop_id
_space_group_symop_operation_xyz
1 x,y,z
2 x,-y,z+1/2
3 x+1/2,y+1/2,z
4 x+1/2,-y+1/2,z+1/2
 
loop_
_atom_site_label
_atom_site_type_symbol
_atom_site_symmetry_multiplicity
_atom_site_Wyckoff_label
_atom_site_fract_x
_atom_site_fract_y
_atom_site_fract_z
_atom_site_occupancy
O1   O    4 a 0.57490  0.35100 0.81820  1.00000
O2   O    4 a 0.07070  0.34000 0.84760  1.00000
O3   O    4 a 0.73150  0.13800 0.48510  1.00000
O4   O    4 a 0.25090  0.14400 0.51520  1.00000
O5   O    4 a 0.41550  0.35200 0.67410  1.00000
O6   O    4 a -0.08730 0.35200 0.64340  1.00000
O7   O    4 a 0.87730  0.16400 -0.07870 1.00000
O8   O    4 a 0.41600  0.16800 -0.06390 1.00000
O9   O    4 a 0.77410  0.14500 0.75380  1.00000
O10  O    4 a 0.23360  0.14300 0.74020  1.00000
O11  O    4 a 0.61950  0.34100 0.58470  1.00000
O12  O    4 a 0.08110  0.34300 0.56610  1.00000
O13  O    4 a -0.00340 0.01100 0.60620  1.00000
O14  O    4 a 0.35330  0.48900 0.56650  1.00000
O15  O    4 a 0.64980  0.00500 0.67110  1.00000
O16  O    4 a 0.15240  0.49600 0.78050  1.00000
O17  O    4 a 0.86360  0.49900 0.73280  1.00000
O18  O    4 a 0.33610  0.00300 0.83330  1.00000
O19  O    4 a 0.00520  0.49300 0.73980  1.00000
O20  O    4 a 0.13690  0.01100 -0.07320 1.00000
O21  O    4 a 0.49270  0.49200 0.88680  1.00000
O22  O    4 a 0.50000  0.46800 0.50000  1.00000
O23  O    4 a 0.22520  0.49100 0.58980  1.00000
O24  O    4 a 0.27440  0.02100 -0.08450 1.00000
Si1  Si   4 a 0.05070  0.04100 0.56420  1.00000
Si2  Si   4 a 0.20360  0.44700 0.73470  1.00000
Si3  Si   4 a -0.08020 0.04900 0.62250  1.00000
Si4  Si   4 a 0.57510  0.04300 0.79550  1.00000
Si5  Si   4 a 0.42470  0.04800 0.69710  1.00000
Si6  Si   4 a 0.26430  0.44400 0.53860  1.00000
Si7  Si   4 a 0.80230  0.44900 0.76610  1.00000
Si8  Si   4 a 0.64530  0.04100 0.60270  1.00000
Si9  Si   4 a 0.85310  0.46300 -0.09840 1.00000
Si10 Si   4 a 0.44930  0.46600 -0.06420 1.00000
Si11 Si   4 a 0.22440  0.05900 -0.03950 1.00000
Si12 Si   4 a 0.06970  0.04900 0.87020  1.00000
