# CIF file 
data_findsym-output
_audit_creation_method FINDSYM

_chemical_name_mineral 'Rasvumite'
_chemical_formula_sum 'Fe2 K S3'

loop_
_publ_author_name
 'J. R. Clark'
 'G. E. {Brown, Jr.}'
_journal_name_full_name
;
 American Mineralogist
;
_journal_volume 65
_journal_year 1980
_journal_page_first 477
_journal_page_last 482
_publ_Section_title
;
 Crystal structure of rasvumite, KFe$_{2}$S$_{3}$
;

# Found in The American Mineralogist Crystal Structure Database, 2003

_aflow_title 'Rasvumite (KFe$_{2}$S$_{3}$) Structure'
_aflow_proto 'A2BC3_oC24_63_e_c_cg'
_aflow_params 'a,b/a,c/a,y_{1},y_{2},x_{3},x_{4},y_{4}'
_aflow_params_values '9.049,1.21770361366,0.600176815118,0.6699,0.1191,0.8502,0.2174,0.3859'
_aflow_Strukturbericht 'None'
_aflow_Pearson 'oC24'

_symmetry_space_group_name_H-M "C 2/m 2/c 21/m"
_symmetry_Int_Tables_number 63
 
_cell_length_a    9.04900
_cell_length_b    11.01900
_cell_length_c    5.43100
_cell_angle_alpha 90.00000
_cell_angle_beta  90.00000
_cell_angle_gamma 90.00000
 
loop_
_space_group_symop_id
_space_group_symop_operation_xyz
1 x,y,z
2 x,-y,-z
3 -x,y,-z+1/2
4 -x,-y,z+1/2
5 -x,-y,-z
6 -x,y,z
7 x,-y,z+1/2
8 x,y,-z+1/2
9 x+1/2,y+1/2,z
10 x+1/2,-y+1/2,-z
11 -x+1/2,y+1/2,-z+1/2
12 -x+1/2,-y+1/2,z+1/2
13 -x+1/2,-y+1/2,-z
14 -x+1/2,y+1/2,z
15 x+1/2,-y+1/2,z+1/2
16 x+1/2,y+1/2,-z+1/2
 
loop_
_atom_site_label
_atom_site_type_symbol
_atom_site_symmetry_multiplicity
_atom_site_Wyckoff_label
_atom_site_fract_x
_atom_site_fract_y
_atom_site_fract_z
_atom_site_occupancy
K1  K    4 c 0.00000 0.66990 0.25000 1.00000
S1  S    4 c 0.00000 0.11910 0.25000 1.00000
Fe1 Fe   8 e 0.85020 0.00000 0.00000 1.00000
S2  S    8 g 0.21740 0.38590 0.25000 1.00000
