# CIF file
data_findsym-output
_audit_creation_method FINDSYM

_chemical_name_mineral 'Na3Co(CO3)2Cl'
_chemical_formula_sum 'C2 Cl Co Na3 O6'

loop_
_publ_author_name
 'Z. Fu'
 'Y. Zheng'
 'Y. Xiao'
 'S. Bedanta'
 'A. Senyshyn'
 'G. G. Simeoni'
 'Y. Su'
 'U. R\"{u}cker'
 'P. K\"{o}gerler'
 'Thomas Br\"{u}ckel'
_journal_name_full_name
;
 Physical Review B
;
_journal_volume 87
_journal_year 2013
_journal_page_first 214406
_journal_page_last 214406
_publ_Section_title
;
 Coexistence of magnetic order and spin-glass-like phase in the pyrochlore antiferromagnet Na$_3$Co(CO$_3$)$_2$Cl
;

_aflow_title 'Pyrochlore (Na$_{3}$Co(CO$_{3}$)$_{2}$Cl) Structure'
_aflow_proto 'A2BCD3E6_cF208_203_e_c_d_f_g'
_aflow_params 'a,x_{3},x_{4},x_{5},y_{5},z_{5}'
_aflow_params_values '13.9898,0.2826,-0.099,0.2257,0.2665,0.3531'
_aflow_Strukturbericht 'None'
_aflow_Pearson 'cF208'

_symmetry_space_group_name_H-M "F 2/d -3 (origin choice 2)"
_symmetry_Int_Tables_number 203
 
_cell_length_a    13.98980
_cell_length_b    13.98980
_cell_length_c    13.98980
_cell_angle_alpha 90.00000
_cell_angle_beta  90.00000
_cell_angle_gamma 90.00000
 
loop_
_space_group_symop_id
_space_group_symop_operation_xyz
1 x,y,z
2 x,-y+3/4,-z+3/4
3 -x+3/4,y,-z+3/4
4 -x+3/4,-y+3/4,z
5 y,z,x
6 y,-z+3/4,-x+3/4
7 -y+3/4,z,-x+3/4
8 -y+3/4,-z+3/4,x
9 z,x,y
10 z,-x+3/4,-y+3/4
11 -z+3/4,x,-y+3/4
12 -z+3/4,-x+3/4,y
13 -x,-y,-z
14 -x,y+1/4,z+1/4
15 x+1/4,-y,z+1/4
16 x+1/4,y+1/4,-z
17 -y,-z,-x
18 -y,z+1/4,x+1/4
19 y+1/4,-z,x+1/4
20 y+1/4,z+1/4,-x
21 -z,-x,-y
22 -z,x+1/4,y+1/4
23 z+1/4,-x,y+1/4
24 z+1/4,x+1/4,-y
25 x,y+1/2,z+1/2
26 x,-y+1/4,-z+1/4
27 -x+3/4,y+1/2,-z+1/4
28 -x+3/4,-y+1/4,z+1/2
29 y,z+1/2,x+1/2
30 y,-z+1/4,-x+1/4
31 -y+3/4,z+1/2,-x+1/4
32 -y+3/4,-z+1/4,x+1/2
33 z,x+1/2,y+1/2
34 z,-x+1/4,-y+1/4
35 -z+3/4,x+1/2,-y+1/4
36 -z+3/4,-x+1/4,y+1/2
37 -x,-y+1/2,-z+1/2
38 -x,y+3/4,z+3/4
39 x+1/4,-y+1/2,z+3/4
40 x+1/4,y+3/4,-z+1/2
41 -y,-z+1/2,-x+1/2
42 -y,z+3/4,x+3/4
43 y+1/4,-z+1/2,x+3/4
44 y+1/4,z+3/4,-x+1/2
45 -z,-x+1/2,-y+1/2
46 -z,x+3/4,y+3/4
47 z+1/4,-x+1/2,y+3/4
48 z+1/4,x+3/4,-y+1/2
49 x+1/2,y,z+1/2
50 x+1/2,-y+3/4,-z+1/4
51 -x+1/4,y,-z+1/4
52 -x+1/4,-y+3/4,z+1/2
53 y+1/2,z,x+1/2
54 y+1/2,-z+3/4,-x+1/4
55 -y+1/4,z,-x+1/4
56 -y+1/4,-z+3/4,x+1/2
57 z+1/2,x,y+1/2
58 z+1/2,-x+3/4,-y+1/4
59 -z+1/4,x,-y+1/4
60 -z+1/4,-x+3/4,y+1/2
61 -x+1/2,-y,-z+1/2
62 -x+1/2,y+1/4,z+3/4
63 x+3/4,-y,z+3/4
64 x+3/4,y+1/4,-z+1/2
65 -y+1/2,-z,-x+1/2
66 -y+1/2,z+1/4,x+3/4
67 y+3/4,-z,x+3/4
68 y+3/4,z+1/4,-x+1/2
69 -z+1/2,-x,-y+1/2
70 -z+1/2,x+1/4,y+3/4
71 z+3/4,-x,y+3/4
72 z+3/4,x+1/4,-y+1/2
73 x+1/2,y+1/2,z
74 x+1/2,-y+1/4,-z+3/4
75 -x+1/4,y+1/2,-z+3/4
76 -x+1/4,-y+1/4,z
77 y+1/2,z+1/2,x
78 y+1/2,-z+1/4,-x+3/4
79 -y+1/4,z+1/2,-x+3/4
80 -y+1/4,-z+1/4,x
81 z+1/2,x+1/2,y
82 z+1/2,-x+1/4,-y+3/4
83 -z+1/4,x+1/2,-y+3/4
84 -z+1/4,-x+1/4,y
85 -x+1/2,-y+1/2,-z
86 -x+1/2,y+3/4,z+1/4
87 x+3/4,-y+1/2,z+1/4
88 x+3/4,y+3/4,-z
89 -y+1/2,-z+1/2,-x
90 -y+1/2,z+3/4,x+1/4
91 y+3/4,-z+1/2,x+1/4
92 y+3/4,z+3/4,-x
93 -z+1/2,-x+1/2,-y
94 -z+1/2,x+3/4,y+1/4
95 z+3/4,-x+1/2,y+1/4
96 z+3/4,x+3/4,-y
 
loop_
_atom_site_label
_atom_site_type_symbol
_atom_site_symmetry_multiplicity
_atom_site_Wyckoff_label
_atom_site_fract_x
_atom_site_fract_y
_atom_site_fract_z
_atom_site_occupancy
Cl1 Cl  16 c 0.00000  0.00000 0.00000 1.00000
Co1 Co  16 d 0.50000  0.50000 0.50000 1.00000
C1  C   32 e 0.28260  0.28260 0.28260 1.00000
Na1 Na  48 f -0.09900 0.12500 0.12500 1.00000
O1  O   96 g 0.22570  0.26650 0.35310 1.00000
