# CIF file
data_findsym-output
_audit_creation_method FINDSYM

_chemical_name_mineral 'CeRu2B2'
_chemical_formula_sum 'B2 Ce Ru2'

loop_
_publ_author_name
 'P. Rogl'
_journal_name_full_name
;
 Journal of the Less-Common Metals
;
_journal_volume 110
_journal_year 1985
_journal_page_first 283
_journal_page_last 294
_publ_Section_title
;
 Structural chemistry and phase equilibria of ternary rare earth-platinum metal borides
;

# Found in Pearson's Crystal Data - Crystal Structure Database for Inorganic Compounds, 2013

_aflow_title 'CeRu$_{2}$B$_{2}$ Structure'
_aflow_proto 'A2BC2_oF40_22_fi_ad_gh'
_aflow_params 'a,b/a,c/a,y_{3},z_{4},z_{5},y_{6}'
_aflow_params_values '6.4793068924,1.3977127159,1.54737394473,0.3134,0.3627,0.1144,0.0719'
_aflow_Strukturbericht 'None'
_aflow_Pearson 'oF40'

_cell_length_a    6.4793068924
_cell_length_b    9.0562096337
_cell_length_c    10.0259106652
_cell_angle_alpha 90.0000000000
_cell_angle_beta  90.0000000000
_cell_angle_gamma 90.0000000000
 
_symmetry_space_group_name_H-M "F 2 2 2"
_symmetry_Int_Tables_number 22
 
loop_
_space_group_symop_id
_space_group_symop_operation_xyz
1 x,y,z
2 x,-y,-z
3 -x,y,-z
4 -x,-y,z
5 x,y+1/2,z+1/2
6 x,-y+1/2,-z+1/2
7 -x,y+1/2,-z+1/2
8 -x,-y+1/2,z+1/2
9 x+1/2,y,z+1/2
10 x+1/2,-y,-z+1/2
11 -x+1/2,y,-z+1/2
12 -x+1/2,-y,z+1/2
13 x+1/2,y+1/2,z
14 x+1/2,-y+1/2,-z
15 -x+1/2,y+1/2,-z
16 -x+1/2,-y+1/2,z
 
loop_
_atom_site_label
_atom_site_type_symbol
_atom_site_symmetry_multiplicity
_atom_site_Wyckoff_label
_atom_site_fract_x
_atom_site_fract_y
_atom_site_fract_z
_atom_site_occupancy
Ce1 Ce   4 a 0.00000 0.00000 0.00000 1.00000
Ce2 Ce   4 d 0.25000 0.25000 0.75000 1.00000
B1  B    8 f 0.00000 0.31340 0.00000 1.00000
Ru1 Ru   8 g 0.00000 0.00000 0.36270 1.00000
Ru2 Ru   8 h 0.25000 0.25000 0.11440 1.00000
B2  B    8 i 0.25000 0.07190 0.25000 1.00000
