# CIF file
data_findsym-output
_audit_creation_method FINDSYM

_chemical_name_mineral 'Rh5Ge3'
_chemical_formula_sum 'Ge3 Rh5'

loop_
_publ_author_name
 'S. Geller'
_journal_name_full_name
;
 Acta Cristallographica
;
_journal_volume 8
_journal_year 1955
_journal_page_first 15
_journal_page_last 21
_publ_Section_title
;
 The rhodium--germanium system. I. The crystal structures of Rh$_{2}$Ge, Rh$_{5}$Ge$_{3}$ and RhGe
;

# Found in Pearson's Crystal Data - Crystal Structure Database for Inorganic Compounds, 2013

_aflow_title 'Rh$_{5}$Ge$_{3}$ Structure'
_aflow_proto 'A3B5_oP16_55_ch_agh'
_aflow_params 'a,b/a,c/a,x_{3},y_{3},x_{4},y_{4},x_{5},y_{5}'
_aflow_params_values '5.4199981729,1.90405904061,0.730627306278,0.348,0.22,0.112,0.152,0.17,0.393'
_aflow_Strukturbericht 'None'
_aflow_Pearson 'oP16'

_cell_length_a    5.4199981729
_cell_length_b    10.3199965212
_cell_length_c    3.9599986651
_cell_angle_alpha 90.0000000000
_cell_angle_beta  90.0000000000
_cell_angle_gamma 90.0000000000
 
_symmetry_space_group_name_H-M "P 21/b 21/a 2/m"
_symmetry_Int_Tables_number 55
 
loop_
_space_group_symop_id
_space_group_symop_operation_xyz
1 x,y,z
2 x+1/2,-y+1/2,-z
3 -x+1/2,y+1/2,-z
4 -x,-y,z
5 -x,-y,-z
6 -x+1/2,y+1/2,z
7 x+1/2,-y+1/2,z
8 x,y,-z
 
loop_
_atom_site_label
_atom_site_type_symbol
_atom_site_symmetry_multiplicity
_atom_site_Wyckoff_label
_atom_site_fract_x
_atom_site_fract_y
_atom_site_fract_z
_atom_site_occupancy
Rh1 Rh   2 a 0.00000 0.00000 0.00000 1.00000
Ge1 Ge   2 c 0.00000 0.50000 0.00000 1.00000
Rh2 Rh   4 g 0.34800 0.22000 0.00000 1.00000
Ge2 Ge   4 h 0.11200 0.15200 0.50000 1.00000
Rh3 Rh   4 h 0.17000 0.39300 0.50000 1.00000
