# CIF file
data_findsym-output
_audit_creation_method FINDSYM

_chemical_name_mineral 'UCl3'
_chemical_formula_sum 'Cl3 U'

loop_
_publ_author_name
 'W. H. Zachariasen'
_journal_name_full_name
;
 Acta Cristallographica
;
_journal_volume 1
_journal_year 1948
_journal_page_first 265
_journal_page_last 268
_publ_Section_title
;
 Crystal chemical studies of the 5f-series of elements. I. New structure types
;

# Found in Pearson's Crystal Data - Crystal Structure Database for Inorganic Compounds, 2013

_aflow_title 'UCl$_{3}$ Structure'
_aflow_proto 'A3B_hP8_176_h_c'
_aflow_params 'a,c/a,x_{2},y_{2}'
_aflow_params_values '7.4429335392,0.580545478976,0.375,0.083'
_aflow_Strukturbericht 'None'
_aflow_Pearson 'hP8'

_cell_length_a    7.4429335392
_cell_length_b    7.4429335392
_cell_length_c    4.3209614165
_cell_angle_alpha 90.0000000000
_cell_angle_beta  90.0000000000
_cell_angle_gamma 120.0000000000
 
_symmetry_space_group_name_H-M "P 63/m"
_symmetry_Int_Tables_number 176
 
loop_
_space_group_symop_id
_space_group_symop_operation_xyz
1 x,y,z
2 x-y,x,z+1/2
3 -y,x-y,z
4 -x,-y,z+1/2
5 -x+y,-x,z
6 y,-x+y,z+1/2
7 -x,-y,-z
8 -x+y,-x,-z+1/2
9 y,-x+y,-z
10 x,y,-z+1/2
11 x-y,x,-z
12 -y,x-y,-z+1/2
 
loop_
_atom_site_label
_atom_site_type_symbol
_atom_site_symmetry_multiplicity
_atom_site_Wyckoff_label
_atom_site_fract_x
_atom_site_fract_y
_atom_site_fract_z
_atom_site_occupancy
U1  U    2 c 0.33333 0.66667 0.25000 1.00000
Cl1 Cl   6 h 0.37500 0.08300 0.25000 1.00000
