# CIF file 
data_findsym-output
_audit_creation_method FINDSYM

_chemical_name_mineral 'Tychite'
_chemical_formula_sum 'C4 Mg2 Na6 O16 S'

loop_
_publ_author_name
 'G. R. Schmidt'
 'R. Jacqueline'
 'H. Yang'
 'R. T. Downs'
_journal_name_full_name
;
 Acta Crystallographica Section E: Crystallographic Communications
;
_journal_volume 62
_journal_year 2006
_journal_page_first i207
_journal_page_last i209
_publ_Section_title
;
 Tychite, Na$_{6}$Mg$_{2}$(SO$_{4}$)(CO$_{3}$)$_{4}$: Structure analysis and Raman spectroscopic data
;

# Found in The American Mineralogist Crystal Structure Database, 2003

_aflow_title 'Tychite (Na$_{6}$Mg$_{2}$(SO$_{4}$)(CO$_{3}$)$_{4}$) Structure'
_aflow_proto 'A4B2C6D16E_cF232_203_e_d_f_eg_a'
_aflow_params 'a,x_{3},x_{4},x_{5},x_{6},y_{6},z_{6}'
_aflow_params_values '13.9038,0.28207,0.06362,0.34379,0.26626,0.22529,0.35333'
_aflow_Strukturbericht 'None'
_aflow_Pearson 'cF232'

_symmetry_space_group_name_H-M "F 2/d -3 (origin choice 2)"
_symmetry_Int_Tables_number 203
 
_cell_length_a    13.90380
_cell_length_b    13.90380
_cell_length_c    13.90380
_cell_angle_alpha 90.00000
_cell_angle_beta  90.00000
_cell_angle_gamma 90.00000
 
loop_
_space_group_symop_id
_space_group_symop_operation_xyz
1 x,y,z
2 x,-y+3/4,-z+3/4
3 -x+3/4,y,-z+3/4
4 -x+3/4,-y+3/4,z
5 y,z,x
6 y,-z+3/4,-x+3/4
7 -y+3/4,z,-x+3/4
8 -y+3/4,-z+3/4,x
9 z,x,y
10 z,-x+3/4,-y+3/4
11 -z+3/4,x,-y+3/4
12 -z+3/4,-x+3/4,y
13 -x,-y,-z
14 -x,y+1/4,z+1/4
15 x+1/4,-y,z+1/4
16 x+1/4,y+1/4,-z
17 -y,-z,-x
18 -y,z+1/4,x+1/4
19 y+1/4,-z,x+1/4
20 y+1/4,z+1/4,-x
21 -z,-x,-y
22 -z,x+1/4,y+1/4
23 z+1/4,-x,y+1/4
24 z+1/4,x+1/4,-y
25 x,y+1/2,z+1/2
26 x,-y+1/4,-z+1/4
27 -x+3/4,y+1/2,-z+1/4
28 -x+3/4,-y+1/4,z+1/2
29 y,z+1/2,x+1/2
30 y,-z+1/4,-x+1/4
31 -y+3/4,z+1/2,-x+1/4
32 -y+3/4,-z+1/4,x+1/2
33 z,x+1/2,y+1/2
34 z,-x+1/4,-y+1/4
35 -z+3/4,x+1/2,-y+1/4
36 -z+3/4,-x+1/4,y+1/2
37 -x,-y+1/2,-z+1/2
38 -x,y+3/4,z+3/4
39 x+1/4,-y+1/2,z+3/4
40 x+1/4,y+3/4,-z+1/2
41 -y,-z+1/2,-x+1/2
42 -y,z+3/4,x+3/4
43 y+1/4,-z+1/2,x+3/4
44 y+1/4,z+3/4,-x+1/2
45 -z,-x+1/2,-y+1/2
46 -z,x+3/4,y+3/4
47 z+1/4,-x+1/2,y+3/4
48 z+1/4,x+3/4,-y+1/2
49 x+1/2,y,z+1/2
50 x+1/2,-y+3/4,-z+1/4
51 -x+1/4,y,-z+1/4
52 -x+1/4,-y+3/4,z+1/2
53 y+1/2,z,x+1/2
54 y+1/2,-z+3/4,-x+1/4
55 -y+1/4,z,-x+1/4
56 -y+1/4,-z+3/4,x+1/2
57 z+1/2,x,y+1/2
58 z+1/2,-x+3/4,-y+1/4
59 -z+1/4,x,-y+1/4
60 -z+1/4,-x+3/4,y+1/2
61 -x+1/2,-y,-z+1/2
62 -x+1/2,y+1/4,z+3/4
63 x+3/4,-y,z+3/4
64 x+3/4,y+1/4,-z+1/2
65 -y+1/2,-z,-x+1/2
66 -y+1/2,z+1/4,x+3/4
67 y+3/4,-z,x+3/4
68 y+3/4,z+1/4,-x+1/2
69 -z+1/2,-x,-y+1/2
70 -z+1/2,x+1/4,y+3/4
71 z+3/4,-x,y+3/4
72 z+3/4,x+1/4,-y+1/2
73 x+1/2,y+1/2,z
74 x+1/2,-y+1/4,-z+3/4
75 -x+1/4,y+1/2,-z+3/4
76 -x+1/4,-y+1/4,z
77 y+1/2,z+1/2,x
78 y+1/2,-z+1/4,-x+3/4
79 -y+1/4,z+1/2,-x+3/4
80 -y+1/4,-z+1/4,x
81 z+1/2,x+1/2,y
82 z+1/2,-x+1/4,-y+3/4
83 -z+1/4,x+1/2,-y+3/4
84 -z+1/4,-x+1/4,y
85 -x+1/2,-y+1/2,-z
86 -x+1/2,y+3/4,z+1/4
87 x+3/4,-y+1/2,z+1/4
88 x+3/4,y+3/4,-z
89 -y+1/2,-z+1/2,-x
90 -y+1/2,z+3/4,x+1/4
91 y+3/4,-z+1/2,x+1/4
92 y+3/4,z+3/4,-x
93 -z+1/2,-x+1/2,-y
94 -z+1/2,x+3/4,y+1/4
95 z+3/4,-x+1/2,y+1/4
96 z+3/4,x+3/4,-y
 
loop_
_atom_site_label
_atom_site_type_symbol
_atom_site_symmetry_multiplicity
_atom_site_Wyckoff_label
_atom_site_fract_x
_atom_site_fract_y
_atom_site_fract_z
_atom_site_occupancy
S1  S    8 a 0.12500 0.12500 0.12500 1.00000
Mg1 Mg  16 d 0.50000 0.50000 0.50000 1.00000
C1  C   32 e 0.28207 0.28207 0.28207 1.00000
O1  O   32 e 0.06362 0.06362 0.06362 1.00000
Na1 Na  48 f 0.34379 0.12500 0.12500 1.00000
O2  O   96 g 0.26626 0.22529 0.35333 1.00000
