# CIF file
data_findsym-output
_audit_creation_method FINDSYM

_chemical_name_mineral 'KAu4Sn2'
_chemical_formula_sum 'Au4 K Sn2'

loop_
_publ_author_name
 'H.-D. Sinnen'
 'H.-U. Schuster'
_journal_name_full_name
;
 Zeitschrift f{\"u}r Naturforschung B
;
_journal_volume 33
_journal_year 1978
_journal_page_first 1077
_journal_page_last 1079
_publ_Section_title
;
 Darstellung und Struktur des KAu$_{4}$Sn$_{2}$ / Preparation and Crystal Structure of KAu$_{4}$Sn$_{2}$
;

# Found in Pearson's Crystal Data - Crystal Structure Database for Inorganic Compounds, 2013

_aflow_title 'KAu$_{4}$Sn$_{2}$ Structure'
_aflow_proto 'A4BC2_tI28_120_i_d_e'
_aflow_params 'a,c/a,x_{2},x_{3},y_{3},z_{3}'
_aflow_params_values '8.8470588481,0.924381146154,0.856,0.6452,0.6575,0.0851'
_aflow_Strukturbericht 'None'
_aflow_Pearson 'tI28'

_cell_length_a    8.8470588481
_cell_length_b    8.8470588481
_cell_length_c    8.1780543981
_cell_angle_alpha 90.0000000000
_cell_angle_beta  90.0000000000
_cell_angle_gamma 90.0000000000
 
_symmetry_space_group_name_H-M "I -4 c 2"
_symmetry_Int_Tables_number 120
 
loop_
_space_group_symop_id
_space_group_symop_operation_xyz
1 x,y,z
2 -x,-y,z
3 -y,-x,-z+1/2
4 y,x,-z+1/2
5 -x,y,z+1/2
6 x,-y,z+1/2
7 y,-x,-z
8 -y,x,-z
9 x+1/2,y+1/2,z+1/2
10 -x+1/2,-y+1/2,z+1/2
11 -y+1/2,-x+1/2,-z
12 y+1/2,x+1/2,-z
13 -x+1/2,y+1/2,z
14 x+1/2,-y+1/2,z
15 y+1/2,-x+1/2,-z+1/2
16 -y+1/2,x+1/2,-z+1/2
 
loop_
_atom_site_label
_atom_site_type_symbol
_atom_site_symmetry_multiplicity
_atom_site_Wyckoff_label
_atom_site_fract_x
_atom_site_fract_y
_atom_site_fract_z
_atom_site_occupancy
K1  K    4 d 0.00000 0.50000 0.00000 1.00000
Sn1 Sn   8 e 0.85600 0.85600 0.25000 1.00000
Au1 Au  16 i 0.64520 0.65750 0.08510 1.00000
