# CIF file
data_findsym-output
_audit_creation_method FINDSYM

_chemical_name_mineral 'Ba5In4Bi5'
_chemical_formula_sum 'Ba5 Bi5 In4'

loop_
_publ_author_name
 'S. Ponou'
 'T. F. F{\"a}ssler'
 'G. Tob{\\'i}as'
 'E. Canadell'
 'A. Cho'
 'S. C. Sevov'
_journal_name_full_name
;
 Chemistry - A European Journal
;
_journal_volume 10
_journal_year 2004
_journal_page_first 3615
_journal_page_last 3621
_publ_Section_title
;
 Synthesis, Characterization, and Electronic Structure of Ba$_{5}$In$_{4}$Bi$_{5}$: An Acentric and One-Electron Deficient Phase
;

# Found in Pearson's Crystal Data - Crystal Structure Database for Inorganic Compounds, 2013

_aflow_title 'Ba$_{5}$In$_{4}$Bi$_{5}$ Structure'
_aflow_proto 'A5B5C4_tP28_104_ac_ac_c'
_aflow_params 'a,c/a,z_{1},z_{2},x_{3},y_{3},z_{3},x_{4},y_{4},z_{4},x_{5},y_{5},z_{5}'
_aflow_params_values '10.6225961282,0.84830508475,0.5,0.8821,0.8116,0.6057,0.3261,0.60942,0.80921,0.00978,0.8116,-0.072,0.1681'
_aflow_Strukturbericht 'None'
_aflow_Pearson 'tP28'

_cell_length_a    10.6225961282
_cell_length_b    10.6225961282
_cell_length_c    9.0112023088
_cell_angle_alpha 90.0000000000
_cell_angle_beta  90.0000000000
_cell_angle_gamma 90.0000000000
 
_symmetry_space_group_name_H-M "P 4 n c"
_symmetry_Int_Tables_number 104
 
loop_
_space_group_symop_id
_space_group_symop_operation_xyz
1 x,y,z
2 -x,-y,z
3 -y,x,z
4 y,-x,z
5 -x+1/2,y+1/2,z+1/2
6 x+1/2,-y+1/2,z+1/2
7 y+1/2,x+1/2,z+1/2
8 -y+1/2,-x+1/2,z+1/2
 
loop_
_atom_site_label
_atom_site_type_symbol
_atom_site_symmetry_multiplicity
_atom_site_Wyckoff_label
_atom_site_fract_x
_atom_site_fract_y
_atom_site_fract_z
_atom_site_occupancy
Ba1 Ba   2 a 0.00000 0.00000  0.50000 1.00000
Bi1 Bi   2 a 0.00000 0.00000  0.88210 1.00000
Ba2 Ba   8 c 0.81160 0.60570  0.32610 1.00000
Bi2 Bi   8 c 0.60942 0.80921  0.00978 1.00000
In1 In   8 c 0.81160 -0.07200 0.16810 1.00000
