# CIF file
data_findsym-output
_audit_creation_method FINDSYM

_chemical_name_mineral 'CuCrCl5[NH3]6'
_chemical_formula_sum 'Cl5 Cr Cu N6'

loop_
_publ_author_name
 'M. Mori'
 'Y. Saito'
 'T. Watanabe'
_journal_name_full_name
;
 Bulletin of the Chemical Society of Japan
;
_journal_volume 34
_journal_year 1961
_journal_page_first 295
_journal_page_last 296
_publ_Section_title
;
 The Crystal Structure of [Cr(NH$_{3}$)$_{6}$] [CuCl$_{5}$]
;

# Found in Pearson's Crystal Data - Crystal Structure Database for Inorganic Compounds, 2013

_aflow_title 'CuCrCl$_{5}$[NH$_{3}$]$_{6}$ Structure'
_aflow_proto 'A5BCD6_cF416_228_eg_c_b_h'
_aflow_params 'a,x_{3},y_{4},x_{5},y_{5},z_{5}'
_aflow_params_values '22.2649775014,0.19,0.425,0.05,0.18,0.28'
_aflow_Strukturbericht 'None'
_aflow_Pearson 'cF416'

_cell_length_a    22.2649775014
_cell_length_b    22.2649775014
_cell_length_c    22.2649775014
_cell_angle_alpha 90.0000000000
_cell_angle_beta  90.0000000000
_cell_angle_gamma 90.0000000000
 
_symmetry_space_group_name_H-M "F 41/d -3 2/c (origin choice 2)"
_symmetry_Int_Tables_number 228
 
loop_
_space_group_symop_id
_space_group_symop_operation_xyz
1 x,y,z
2 x,-y+1/4,-z+1/4
3 -x+1/4,y,-z+1/4
4 -x+1/4,-y+1/4,z
5 y,z,x
6 y,-z+1/4,-x+1/4
7 -y+1/4,z,-x+1/4
8 -y+1/4,-z+1/4,x
9 z,x,y
10 z,-x+1/4,-y+1/4
11 -z+1/4,x,-y+1/4
12 -z+1/4,-x+1/4,y
13 -y+1/2,-x+1/2,-z+1/2
14 -y+1/2,x+1/4,z+1/4
15 y+1/4,-x+1/2,z+1/4
16 y+1/4,x+1/4,-z+1/2
17 -x+1/2,-z+1/2,-y+1/2
18 -x+1/2,z+1/4,y+1/4
19 x+1/4,-z+1/2,y+1/4
20 x+1/4,z+1/4,-y+1/2
21 -z+1/2,-y+1/2,-x+1/2
22 -z+1/2,y+1/4,x+1/4
23 z+1/4,-y+1/2,x+1/4
24 z+1/4,y+1/4,-x+1/2
25 -x,-y,-z
26 -x,y+1/4,z+1/4
27 x+1/4,-y,z+1/4
28 x+1/4,y+1/4,-z
29 -y,-z,-x
30 -y,z+1/4,x+1/4
31 y+1/4,-z,x+1/4
32 y+1/4,z+1/4,-x
33 -z,-x,-y
34 -z,x+1/4,y+1/4
35 z+1/4,-x,y+1/4
36 z+1/4,x+1/4,-y
37 y+1/2,x+1/2,z+1/2
38 y+1/2,-x+1/4,-z+1/4
39 -y+1/4,x+1/2,-z+1/4
40 -y+1/4,-x+1/4,z+1/2
41 x+1/2,z+1/2,y+1/2
42 x+1/2,-z+1/4,-y+1/4
43 -x+1/4,z+1/2,-y+1/4
44 -x+1/4,-z+1/4,y+1/2
45 z+1/2,y+1/2,x+1/2
46 z+1/2,-y+1/4,-x+1/4
47 -z+1/4,y+1/2,-x+1/4
48 -z+1/4,-y+1/4,x+1/2
49 x,y+1/2,z+1/2
50 x,-y+3/4,-z+3/4
51 -x+1/4,y+1/2,-z+3/4
52 -x+1/4,-y+3/4,z+1/2
53 y,z+1/2,x+1/2
54 y,-z+3/4,-x+3/4
55 -y+1/4,z+1/2,-x+3/4
56 -y+1/4,-z+3/4,x+1/2
57 z,x+1/2,y+1/2
58 z,-x+3/4,-y+3/4
59 -z+1/4,x+1/2,-y+3/4
60 -z+1/4,-x+3/4,y+1/2
61 -y+1/2,-x,-z
62 -y+1/2,x+3/4,z+3/4
63 y+1/4,-x,z+3/4
64 y+1/4,x+3/4,-z
65 -x+1/2,-z,-y
66 -x+1/2,z+3/4,y+3/4
67 x+1/4,-z,y+3/4
68 x+1/4,z+3/4,-y
69 -z+1/2,-y,-x
70 -z+1/2,y+3/4,x+3/4
71 z+1/4,-y,x+3/4
72 z+1/4,y+3/4,-x
73 -x,-y+1/2,-z+1/2
74 -x,y+3/4,z+3/4
75 x+1/4,-y+1/2,z+3/4
76 x+1/4,y+3/4,-z+1/2
77 -y,-z+1/2,-x+1/2
78 -y,z+3/4,x+3/4
79 y+1/4,-z+1/2,x+3/4
80 y+1/4,z+3/4,-x+1/2
81 -z,-x+1/2,-y+1/2
82 -z,x+3/4,y+3/4
83 z+1/4,-x+1/2,y+3/4
84 z+1/4,x+3/4,-y+1/2
85 y+1/2,x,z
86 y+1/2,-x+3/4,-z+3/4
87 -y+1/4,x,-z+3/4
88 -y+1/4,-x+3/4,z
89 x+1/2,z,y
90 x+1/2,-z+3/4,-y+3/4
91 -x+1/4,z,-y+3/4
92 -x+1/4,-z+3/4,y
93 z+1/2,y,x
94 z+1/2,-y+3/4,-x+3/4
95 -z+1/4,y,-x+3/4
96 -z+1/4,-y+3/4,x
97 x+1/2,y,z+1/2
98 x+1/2,-y+1/4,-z+3/4
99 -x+3/4,y,-z+3/4
100 -x+3/4,-y+1/4,z+1/2
101 y+1/2,z,x+1/2
102 y+1/2,-z+1/4,-x+3/4
103 -y+3/4,z,-x+3/4
104 -y+3/4,-z+1/4,x+1/2
105 z+1/2,x,y+1/2
106 z+1/2,-x+1/4,-y+3/4
107 -z+3/4,x,-y+3/4
108 -z+3/4,-x+1/4,y+1/2
109 -y,-x+1/2,-z
110 -y,x+1/4,z+3/4
111 y+3/4,-x+1/2,z+3/4
112 y+3/4,x+1/4,-z
113 -x,-z+1/2,-y
114 -x,z+1/4,y+3/4
115 x+3/4,-z+1/2,y+3/4
116 x+3/4,z+1/4,-y
117 -z,-y+1/2,-x
118 -z,y+1/4,x+3/4
119 z+3/4,-y+1/2,x+3/4
120 z+3/4,y+1/4,-x
121 -x+1/2,-y,-z+1/2
122 -x+1/2,y+1/4,z+3/4
123 x+3/4,-y,z+3/4
124 x+3/4,y+1/4,-z+1/2
125 -y+1/2,-z,-x+1/2
126 -y+1/2,z+1/4,x+3/4
127 y+3/4,-z,x+3/4
128 y+3/4,z+1/4,-x+1/2
129 -z+1/2,-x,-y+1/2
130 -z+1/2,x+1/4,y+3/4
131 z+3/4,-x,y+3/4
132 z+3/4,x+1/4,-y+1/2
133 y,x+1/2,z
134 y,-x+1/4,-z+3/4
135 -y+3/4,x+1/2,-z+3/4
136 -y+3/4,-x+1/4,z
137 x,z+1/2,y
138 x,-z+1/4,-y+3/4
139 -x+3/4,z+1/2,-y+3/4
140 -x+3/4,-z+1/4,y
141 z,y+1/2,x
142 z,-y+1/4,-x+3/4
143 -z+3/4,y+1/2,-x+3/4
144 -z+3/4,-y+1/4,x
145 x+1/2,y+1/2,z
146 x+1/2,-y+3/4,-z+1/4
147 -x+3/4,y+1/2,-z+1/4
148 -x+3/4,-y+3/4,z
149 y+1/2,z+1/2,x
150 y+1/2,-z+3/4,-x+1/4
151 -y+3/4,z+1/2,-x+1/4
152 -y+3/4,-z+3/4,x
153 z+1/2,x+1/2,y
154 z+1/2,-x+3/4,-y+1/4
155 -z+3/4,x+1/2,-y+1/4
156 -z+3/4,-x+3/4,y
157 -y,-x,-z+1/2
158 -y,x+3/4,z+1/4
159 y+3/4,-x,z+1/4
160 y+3/4,x+3/4,-z+1/2
161 -x,-z,-y+1/2
162 -x,z+3/4,y+1/4
163 x+3/4,-z,y+1/4
164 x+3/4,z+3/4,-y+1/2
165 -z,-y,-x+1/2
166 -z,y+3/4,x+1/4
167 z+3/4,-y,x+1/4
168 z+3/4,y+3/4,-x+1/2
169 -x+1/2,-y+1/2,-z
170 -x+1/2,y+3/4,z+1/4
171 x+3/4,-y+1/2,z+1/4
172 x+3/4,y+3/4,-z
173 -y+1/2,-z+1/2,-x
174 -y+1/2,z+3/4,x+1/4
175 y+3/4,-z+1/2,x+1/4
176 y+3/4,z+3/4,-x
177 -z+1/2,-x+1/2,-y
178 -z+1/2,x+3/4,y+1/4
179 z+3/4,-x+1/2,y+1/4
180 z+3/4,x+3/4,-y
181 y,x,z+1/2
182 y,-x+3/4,-z+1/4
183 -y+3/4,x,-z+1/4
184 -y+3/4,-x+3/4,z+1/2
185 x,z,y+1/2
186 x,-z+3/4,-y+1/4
187 -x+3/4,z,-y+1/4
188 -x+3/4,-z+3/4,y+1/2
189 z,y,x+1/2
190 z,-y+3/4,-x+1/4
191 -z+3/4,y,-x+1/4
192 -z+3/4,-y+3/4,x+1/2
 
loop_
_atom_site_label
_atom_site_type_symbol
_atom_site_symmetry_multiplicity
_atom_site_Wyckoff_label
_atom_site_fract_x
_atom_site_fract_y
_atom_site_fract_z
_atom_site_occupancy
Cu1  Cu  32 b 0.25000 0.25000 0.25000 1.00000
Cr1  Cr  32 c 0.00000 0.00000 0.00000 1.00000
Cl1  Cl  64 e 0.19000 0.19000 0.19000 1.00000
Cl2  Cl  96 g 0.25000 0.42500 0.57500 1.00000
N1   N   192 h 0.05000 0.18000 0.28000 1.00000
