# CIF file
data_findsym-output
_audit_creation_method FINDSYM

_chemical_name_mineral 'Cs2ZnFe[CN]6'
_chemical_formula_sum 'C6 Cs2 Fe N6 Zn'

loop_
_publ_author_name
 'V. G. Kuznetsov'
 'Z. V. Popova'
 'G. B. Seifer'
_journal_name_full_name
;
 Russian Journal of Inorganic Chemistry
;
_journal_volume 15
_journal_year 1970
_journal_page_first 1084
_journal_page_last 1088
_publ_Section_title
;
 X-ray diffraction study of ferrocyanides of copper, cobalt, nickel, trivalent iron and mixed copper ferrocyanide with potassium
;

# Found in Pearson's Crystal Data - Crystal Structure Database for Inorganic Compounds, 2013

_aflow_title 'Cs$_{2}$ZnFe[CN]$_{6}$ Structure'
_aflow_proto 'A6B2CD6E_cP64_208_m_ad_b_m_c'
_aflow_params 'a,x_{5},y_{5},z_{5},x_{6},y_{6},z_{6}'
_aflow_params_values '10.3701312618,0.057,0.25,0.23,0.235,0.25,0.458'
_aflow_Strukturbericht 'None'
_aflow_Pearson 'cP64'

_cell_length_a    10.3701312618
_cell_length_b    10.3701312618
_cell_length_c    10.3701312618
_cell_angle_alpha 90.0000000000
_cell_angle_beta  90.0000000000
_cell_angle_gamma 90.0000000000
 
_symmetry_space_group_name_H-M "P 42 3 2"
_symmetry_Int_Tables_number 208
 
loop_
_space_group_symop_id
_space_group_symop_operation_xyz
1 x,y,z
2 x,-y,-z
3 -x,y,-z
4 -x,-y,z
5 y,z,x
6 y,-z,-x
7 -y,z,-x
8 -y,-z,x
9 z,x,y
10 z,-x,-y
11 -z,x,-y
12 -z,-x,y
13 -y+1/2,-x+1/2,-z+1/2
14 -y+1/2,x+1/2,z+1/2
15 y+1/2,-x+1/2,z+1/2
16 y+1/2,x+1/2,-z+1/2
17 -x+1/2,-z+1/2,-y+1/2
18 -x+1/2,z+1/2,y+1/2
19 x+1/2,-z+1/2,y+1/2
20 x+1/2,z+1/2,-y+1/2
21 -z+1/2,-y+1/2,-x+1/2
22 -z+1/2,y+1/2,x+1/2
23 z+1/2,-y+1/2,x+1/2
24 z+1/2,y+1/2,-x+1/2
 
loop_
_atom_site_label
_atom_site_type_symbol
_atom_site_symmetry_multiplicity
_atom_site_Wyckoff_label
_atom_site_fract_x
_atom_site_fract_y
_atom_site_fract_z
_atom_site_occupancy
Cs1 Cs   2 a 0.00000 0.00000 0.00000 1.00000
Fe1 Fe   4 b 0.25000 0.25000 0.25000 1.00000
Zn1 Zn   4 c 0.75000 0.75000 0.75000 1.00000
Cs2 Cs   6 d 0.00000 0.50000 0.50000 1.00000
C1  C   24 m 0.05700 0.25000 0.23000 1.00000
N1  N   24 m 0.23500 0.25000 0.45800 1.00000
