# CIF file 
data_findsym-output
_audit_creation_method FINDSYM

_chemical_name_mineral 'MnAl6'
_chemical_formula_sum 'Al6 Mn'

loop_
_publ_author_name
 'A. Kontio'
 'P. Coppens'
_journal_name_full_name
;
 Acta Crystallographica Section B: Structural Science
;
_journal_volume 37
_journal_year 1981
_journal_page_first 433
_journal_page_last 435
_publ_Section_title
;
 New study of the structure of MnAl$_{6}$
;

_aflow_title 'MnAl$_{6}$ ($D2_{h}$) Structure'
_aflow_proto 'A6B_oC28_63_efg_c'
_aflow_params 'a,b/a,c/a,y_{1},x_{2},y_{3},z_{3},x_{4},y_{4}'
_aflow_params_values '7.5551,0.860266574896,1.17435904224,0.45686,0.32602,0.13917,0.10039,0.31768,0.28622'
_aflow_Strukturbericht '$D2_{h}$'
_aflow_Pearson 'oC28'

_symmetry_space_group_name_H-M "C 2/m 2/c 21/m"
_symmetry_Int_Tables_number 63
 
_cell_length_a    7.55510
_cell_length_b    6.49940
_cell_length_c    8.87240
_cell_angle_alpha 90.00000
_cell_angle_beta  90.00000
_cell_angle_gamma 90.00000
 
loop_
_space_group_symop_id
_space_group_symop_operation_xyz
1 x,y,z
2 x,-y,-z
3 -x,y,-z+1/2
4 -x,-y,z+1/2
5 -x,-y,-z
6 -x,y,z
7 x,-y,z+1/2
8 x,y,-z+1/2
9 x+1/2,y+1/2,z
10 x+1/2,-y+1/2,-z
11 -x+1/2,y+1/2,-z+1/2
12 -x+1/2,-y+1/2,z+1/2
13 -x+1/2,-y+1/2,-z
14 -x+1/2,y+1/2,z
15 x+1/2,-y+1/2,z+1/2
16 x+1/2,y+1/2,-z+1/2
 
loop_
_atom_site_label
_atom_site_type_symbol
_atom_site_symmetry_multiplicity
_atom_site_Wyckoff_label
_atom_site_fract_x
_atom_site_fract_y
_atom_site_fract_z
_atom_site_occupancy
Mn1 Mn   4 c 0.00000 0.45686 0.25000 1.00000
Al1 Al   8 e 0.32602 0.00000 0.00000 1.00000
Al2 Al   8 f 0.00000 0.13917 0.10039 1.00000
Al3 Al   8 g 0.31768 0.28622 0.25000 1.00000
