# CIF file 
data_findsym-output
_audit_creation_method FINDSYM

_chemical_name_mineral 'Stannoidite'
_chemical_formula_sum 'Cu8 Fe2 S12 Sn2 Zn'

loop_
_publ_author_name
 'Y. Kudoh'
 'Y. Tak\\'{e}uchi'
_journal_name_full_name
;
 Zeitschrift f{\"u}r Kristallographie - Crystalline Materials
;
_journal_volume 144
_journal_year 1976
_journal_page_first 145
_journal_page_last 160
_publ_Section_title
;
 The superstructure of stannoidite
;

_aflow_title 'Stannoidite (Cu$_{8}$(Fe,Zn)$_{3}$Sn$_{2}$S$_{12}$) Structure'
_aflow_proto 'A8B2C12D2E_oI50_23_bcfk_i_3k_j_a'
_aflow_params 'a,b/a,c/a,x_{4},z_{5},z_{6},x_{7},y_{7},z_{7},x_{8},y_{8},z_{8},x_{9},y_{9},z_{9},x_{10},y_{10},z_{10}'
_aflow_params_values '10.767,0.502554100492,1.4969815176,0.2511,0.3298,0.1693,0.2465,0.0107,0.1695,0.1308,0.2443,0.0826,0.3792,0.7558,0.0801,0.1294,0.7488,0.2546'
_aflow_Strukturbericht 'None'
_aflow_Pearson 'oI50'

_symmetry_space_group_name_H-M "I 2 2 2"
_symmetry_Int_Tables_number 23
 
_cell_length_a    10.76700
_cell_length_b     5.41100
_cell_length_c    16.11800
_cell_angle_alpha 90.00000
_cell_angle_beta  90.00000
_cell_angle_gamma 90.00000
 
loop_
_space_group_symop_id
_space_group_symop_operation_xyz
1 x,y,z
2 x,-y,-z
3 -x,y,-z
4 -x,-y,z
5 x+1/2,y+1/2,z+1/2
6 x+1/2,-y+1/2,-z+1/2
7 -x+1/2,y+1/2,-z+1/2
8 -x+1/2,-y+1/2,z+1/2
 
loop_
_atom_site_label
_atom_site_type_symbol
_atom_site_symmetry_multiplicity
_atom_site_Wyckoff_label
_atom_site_fract_x
_atom_site_fract_y
_atom_site_fract_z
_atom_site_occupancy
Zn1 Zn   2 a 0.00000 0.00000 0.00000 1.00000
Cu1 Cu   2 b 0.50000 0.00000 0.00000 1.00000
Cu2 Cu   2 c 0.00000 0.00000 0.50000 1.00000
Cu3 Cu   4 f 0.25110 0.00000 0.50000 1.00000
Fe1 Fe   4 i 0.00000 0.00000 0.32980 1.00000
Sn1 Sn   4 j 0.00000 0.50000 0.16930 1.00000
Cu4 Cu   8 k 0.24650 0.01070 0.16950 1.00000
S1  S    8 k 0.13080 0.24430 0.08260 1.00000
S2  S    8 k 0.37920 0.75580 0.08010 1.00000
S3  S    8 k 0.12940 0.74880 0.25460 1.00000
