# CIF file
data_findsym-output
_audit_creation_method FINDSYM

_chemical_name_mineral 'Rh2Ga9'
_chemical_formula_sum 'Ga9 Rh2'

loop_
_publ_author_name
 'M. Bostr{\"o}m'
 'H. Rosner'
 'Y. Prots'
 'U. Burkhardt'
 'Y. Grin'
_journal_name_full_name
;
 Zeitschrift fur Anorganische und Allgemeine Chemie
;
_journal_volume 631
_journal_year 2005
_journal_page_first 534
_journal_page_last 541
_publ_Section_title
;
 The Co$_{2}$Al$_{9}$ structure type revisited
;

# Found in Pearson's Crystal Data - Crystal Structure Database for Inorganic Compounds, 2013

_aflow_title 'Rh$_{2}$Ga$_{9}$ Structure'
_aflow_proto 'A9B2_mP22_7_9a_2a'
_aflow_params 'a,b/a,c/a,\beta,x_{1},y_{1},z_{1},x_{2},y_{2},z_{2},x_{3},y_{3},z_{3},x_{4},y_{4},z_{4},x_{5},y_{5},z_{5},x_{6},y_{6},z_{6},x_{7},y_{7},z_{7},x_{8},y_{8},z_{8},x_{9},y_{9},z_{9},x_{10},y_{10},z_{10},x_{11},y_{11},z_{11}'
_aflow_params_values '6.4165085102,0.999298672153,1.36910105356,93.39,0.4944,0.2369,0.0135,0.2965,0.2623,0.5568,0.4955,0.4453,0.2912,0.2817,0.0557,0.2805,0.8067,0.5491,0.0506,0.0,0.0309,0.0,0.6774,0.1539,0.7442,0.096,0.6343,0.3258,0.8638,0.2389,0.2526,0.6359,0.1217,0.4513,0.156,0.3761,0.11377'
_aflow_Strukturbericht 'None'
_aflow_Pearson 'mP22'

_cell_length_a    6.4165085102
_cell_length_b    6.4120084341
_cell_length_c    8.7848485615
_cell_angle_alpha 90.0000000000
_cell_angle_beta  93.3900000000
_cell_angle_gamma 90.0000000000
 
_symmetry_space_group_name_H-M "P 1 c 1"
_symmetry_Int_Tables_number 7
 
loop_
_space_group_symop_id
_space_group_symop_operation_xyz
1 x,y,z
2 x,-y,z+1/2
 
loop_
_atom_site_label
_atom_site_type_symbol
_atom_site_symmetry_multiplicity
_atom_site_Wyckoff_label
_atom_site_fract_x
_atom_site_fract_y
_atom_site_fract_z
_atom_site_occupancy
Ga1 Ga   2 a 0.49440 0.23690 0.01350 1.00000
Ga2 Ga   2 a 0.29650 0.26230 0.55680 1.00000
Ga3 Ga   2 a 0.49550 0.44530 0.29120 1.00000
Ga4 Ga   2 a 0.28170 0.05570 0.28050 1.00000
Ga5 Ga   2 a 0.80670 0.54910 0.05060 1.00000
Ga6 Ga   2 a 0.00000 0.03090 0.00000 1.00000
Ga7 Ga   2 a 0.67740 0.15390 0.74420 1.00000
Ga8 Ga   2 a 0.09600 0.63430 0.32580 1.00000
Ga9 Ga   2 a 0.86380 0.23890 0.25260 1.00000
Rh1 Rh   2 a 0.63590 0.12170 0.45130 1.00000
Rh2 Rh   2 a 0.15600 0.37610 0.11377 1.00000
