# CIF file 
data_findsym-output
_audit_creation_method FINDSYM

_chemical_name_mineral '$\pi$-FeMg$_{3}$Al$_{9}$Si$_{5}$'
_chemical_formula_sum 'Al9 Fe Mg3 Si5'

loop_
_publ_author_name
 'S. Foss'
 'A. Olsen'
 'C. J. Simensen'
 'J. Taft{\o}'
_journal_name_full_name
;
 Acta Crystallographica Section B: Structural Science
;
_journal_volume 59
_journal_year 2003
_journal_page_first 36
_journal_page_last 42
_publ_Section_title
;
 Determination of the crystal structure of the $\pi$-AlFeMgSi phase using symmetry- and site-sensitive electron microscope techniques
;

# Found in The Materials Project, Mg$_{3}$Al$_{9}$FeSi$_{5}$, {ID mp-7062},

_aflow_title '$\pi$-FeMg$_{3}$Al$_{9}$Si$_{5}$ Structure'
_aflow_proto 'A9BC3D5_hP18_189_fi_a_g_bh'
_aflow_params 'a,c/a,x_{3},x_{4},z_{5},x_{6},z_{6}'
_aflow_params_values '6.6,1.19696969697,0.378,0.43,0.266,0.755,0.236'
_aflow_Strukturbericht 'None'
_aflow_Pearson 'hP18'

_symmetry_space_group_name_H-M "P -6 2 m"
_symmetry_Int_Tables_number 189
 
_cell_length_a    6.60000
_cell_length_b    6.60000
_cell_length_c    7.90000
_cell_angle_alpha 90.00000
_cell_angle_beta  90.00000
_cell_angle_gamma 120.00000
 
loop_
_space_group_symop_id
_space_group_symop_operation_xyz
1 x,y,z
2 -y,x-y,z
3 -x+y,-x,z
4 x-y,-y,-z
5 y,x,-z
6 -x,-x+y,-z
7 -x+y,-x,-z
8 x,y,-z
9 -y,x-y,-z
10 -x,-x+y,z
11 x-y,-y,z
12 y,x,z
 
loop_
_atom_site_label
_atom_site_type_symbol
_atom_site_symmetry_multiplicity
_atom_site_Wyckoff_label
_atom_site_fract_x
_atom_site_fract_y
_atom_site_fract_z
_atom_site_occupancy
Fe1 Fe   1 a 0.00000 0.00000 0.00000 1.00000
Si1 Si   1 b 0.00000 0.00000 0.50000 1.00000
Al1 Al   3 f 0.37800 0.00000 0.00000 1.00000
Mg1 Mg   3 g 0.43000 0.00000 0.50000 1.00000
Si2 Si   4 h 0.33333 0.66667 0.26600 1.00000
Al2 Al   6 i 0.75500 0.00000 0.23600 1.00000
