# CIF file

data_findsym-output
_audit_creation_method FINDSYM

_chemical_name_mineral ''
_chemical_formula_sum 'N'

loop_
_publ_author_name
 'Sam J. La Placa'
 'Walter C Hamilton'
_journal_name_full
;
Acta Crystallographica B
;
_journal_volume 28
_journal_year 1972
_journal_page_first 984
_journal_page_last 985
_publ_Section_title
;
 Refinement of the crystal structure of $\alpha$-N$_2$
;

_aflow_proto 'A_cP8_198_2a'
_aflow_params 'a,x1,x2'
_aflow_params_values '5.65,0.0699,-0.0378'
_aflow_Strukturbericht 'None'
_aflow_Pearson 'cP8'

_symmetry_space_group_name_Hall "P 2ac 2ab 3 P2_13"
_symmetry_space_group_name_H-M "P 21 3"
_symmetry_Int_Tables_number 198

_cell_length_a    5.65000
_cell_length_b    5.65000
_cell_length_c    5.65000
_cell_angle_alpha 90.00000
_cell_angle_beta  90.00000
_cell_angle_gamma 90.00000

loop_
_space_group_symop_id
_space_group_symop_operation_xyz
1 x,y,z
2 x+1/2,-y+1/2,-z
3 -x,y+1/2,-z+1/2
4 -x+1/2,-y,z+1/2
5 y,z,x
6 y+1/2,-z+1/2,-x
7 -y,z+1/2,-x+1/2
8 -y+1/2,-z,x+1/2
9 z,x,y
10 z+1/2,-x+1/2,-y
11 -z,x+1/2,-y+1/2
12 -z+1/2,-x,y+1/2

loop_
_atom_site_label
_atom_site_type_symbol
_atom_site_symmetry_multiplicity
_atom_site_Wyckoff_label
_atom_site_fract_x
_atom_site_fract_y
_atom_site_fract_z
_atom_site_occupancy
N1 N   4 a 0.06990 0.06990 0.06990 1.00000
N2 N   4 a -0.03780 -0.03780 -0.03780 1.00000
