# CIF file 

data_findsym-output
_audit_creation_method FINDSYM

_chemical_name_mineral 'Lonsdaleite'
_chemical_formula_sum 'C'
 
loop_
_publ_author_name
 'Akira Yoshiasa'
 'Yu Murai'
 'Osamu Ohtaka'
 'Tomoo Katsura'
_journal_name_full
;
Japanese Journal of Applied Physics
;
_journal_volume 42
_journal_year 2003
_journal_page_first 1694
_journal_page_last 1704
_publ_Section_title
;
 Detailed Structures of Hexagonal Diamond (lonsdaleite) and Wurtzite-type BN
;

_aflow_proto 'A_hP4_194_f' 
_aflow_params 'a,c/a,z1' 
_aflow_params_values '2.508,1.66786283892,0.05995' 
_aflow_Strukturbericht 'None' 
_aflow_Pearson 'hP4' 

_symmetry_space_group_name_Hall "-P 6c 2c"
_symmetry_space_group_name_H-M "P 63/m m c"
_symmetry_Int_Tables_number 194

_cell_length_a    2.50800
_cell_length_b    2.50800
_cell_length_c    4.18300
_cell_angle_alpha 90.00000
_cell_angle_beta  90.00000
_cell_angle_gamma 120.00000
 
loop_
_space_group_symop_id
_space_group_symop_operation_xyz
1 x,y,z
2 x-y,x,z+1/2
3 -y,x-y,z
4 -x,-y,z+1/2
5 -x+y,-x,z
6 y,-x+y,z+1/2
7 x-y,-y,-z
8 x,x-y,-z+1/2
9 y,x,-z
10 -x+y,y,-z+1/2
11 -x,-x+y,-z
12 -y,-x,-z+1/2
13 -x,-y,-z
14 -x+y,-x,-z+1/2
15 y,-x+y,-z
16 x,y,-z+1/2
17 x-y,x,-z
18 -y,x-y,-z+1/2
19 -x+y,y,z
20 -x,-x+y,z+1/2
21 -y,-x,z
22 x-y,-y,z+1/2
23 x,x-y,z
24 y,x,z+1/2
 
loop_
_atom_site_label
_atom_site_type_symbol
_atom_site_symmetry_multiplicity
_atom_site_Wyckoff_label
_atom_site_fract_x
_atom_site_fract_y
_atom_site_fract_z
_atom_site_occupancy
C1 C   4 f 0.33333 0.66667 0.05995 1.00000
