# CIF file 

data_findsym-output
_audit_creation_method FINDSYM

_chemical_name_mineral 'Hg_xSn'
_chemical_formula_sum 'Sn'
 
loop_
_publ_author_name
 'G. V. Raynor'
 'J. A. Lee'
_journal_name_full
;
Acta Metallurgica
;
_journal_volume 2
_journal_year 1954
_journal_page_first 616
_journal_page_last 620
_publ_Section_title
;
 The tin-rich intermediate phases in the alloys of tin with cadmium, indium and mercury
;

# Found in  Pearson's Handbook, III, pp. 3947

_aflow_proto 'A_hP1_191_a' 
_aflow_params 'a,c/a' 
_aflow_params_values '3.2062,0.931195808122' 
_aflow_Strukturbericht 'A_f' 
_aflow_Pearson 'hP1' 

_symmetry_space_group_name_Hall "-P 6 2"
_symmetry_space_group_name_H-M "P 6/m m m"
_symmetry_Int_Tables_number 191

_cell_length_a    3.20620
_cell_length_b    3.20620
_cell_length_c    2.98560
_cell_angle_alpha 90.00000
_cell_angle_beta  90.00000
_cell_angle_gamma 120.00000
 
loop_
_space_group_symop_id
_space_group_symop_operation_xyz
1 x,y,z
2 x-y,x,z
3 -y,x-y,z
4 -x,-y,z
5 -x+y,-x,z
6 y,-x+y,z
7 x-y,-y,-z
8 x,x-y,-z
9 y,x,-z
10 -x+y,y,-z
11 -x,-x+y,-z
12 -y,-x,-z
13 -x,-y,-z
14 -x+y,-x,-z
15 y,-x+y,-z
16 x,y,-z
17 x-y,x,-z
18 -y,x-y,-z
19 -x+y,y,z
20 -x,-x+y,z
21 -y,-x,z
22 x-y,-y,z
23 x,x-y,z
24 y,x,z
 
loop_
_atom_site_label
_atom_site_type_symbol
_atom_site_symmetry_multiplicity
_atom_site_Wyckoff_label
_atom_site_fract_x
_atom_site_fract_y
_atom_site_fract_z
_atom_site_occupancy
Sn1 Sn  1 a 0.00000 0.00000 0.00000 1.00000
