# CIF file

data_findsym-output
_audit_creation_method FINDSYM

_chemical_name_mineral 'alpha U'
_chemical_formula_sum 'U'

loop_
_publ_author_name
 'C. S. Barrett'
 'M. H. Mueller'
 'R. L. Hitterman'
_journal_name_full
;
Physical Review
;
_journal_volume 129
_journal_year 1963
_journal_page_first 625
_journal_page_last 629
_publ_Section_title
;
 Crystal Structure Variations in Alpha Uranium at Low Temperatures
;

_aflow_proto 'A_oC4_63_c'
_aflow_params 'a,b/a,c/a,y1'
_aflow_params_values '2.8444,2.06331739558,1.73379271551,0.10228'
_aflow_Strukturbericht 'A20'
_aflow_Pearson 'oC4'

_symmetry_space_group_name_Hall "-C 2c 2"
_symmetry_space_group_name_H-M "C m c m"
_symmetry_Int_Tables_number 63

_cell_length_a    2.84440
_cell_length_b    5.86890
_cell_length_c    4.93160
_cell_angle_alpha 90.00000
_cell_angle_beta  90.00000
_cell_angle_gamma 90.00000

loop_
_space_group_symop_id
_space_group_symop_operation_xyz
1 x,y,z
2 x,-y,-z
3 -x,y,-z+1/2
4 -x,-y,z+1/2
5 -x,-y,-z
6 -x,y,z
7 x,-y,z+1/2
8 x,y,-z+1/2
9 x+1/2,y+1/2,z
10 x+1/2,-y+1/2,-z
11 -x+1/2,y+1/2,-z+1/2
12 -x+1/2,-y+1/2,z+1/2
13 -x+1/2,-y+1/2,-z
14 -x+1/2,y+1/2,z
15 x+1/2,-y+1/2,z+1/2
16 x+1/2,y+1/2,-z+1/2

loop_
_atom_site_label
_atom_site_type_symbol
_atom_site_symmetry_multiplicity
_atom_site_Wyckoff_label
_atom_site_fract_x
_atom_site_fract_y
_atom_site_fract_z
_atom_site_occupancy
U1 U   4 c 0.00000 0.10228 0.25000 1.00000
