# CIF file

data_findsym-output
_audit_creation_method FINDSYM

_chemical_name_mineral 'alpha'
_chemical_formula_sum 'Ga'

loop_
_publ_author_name
 'Brahama D. Sharma'
 'Jerry Donohue'
_journal_name_full
;
Zeitschrift f\"{u}r Kristallographie
;
_journal_volume 117
_journal_year 1962
_journal_page_first 293
_journal_page_last 300
_publ_Section_title
;
 A refinement of the crystal structure of gallium
;

# Found in  AMS Database

_aflow_proto 'A_oC8_64_f'
_aflow_params 'a,b/a,c/a,y1,z1'
_aflow_params_values '4.523,1.69378730931,1.0002210922,0.1549,0.081'
_aflow_Strukturbericht 'A11'
_aflow_Pearson 'oC8'

_symmetry_space_group_name_Hall "-C 2bc 2"
_symmetry_space_group_name_H-M "C m c a"
_symmetry_Int_Tables_number 64

_cell_length_a    4.52300
_cell_length_b    7.66100
_cell_length_c    4.52400
_cell_angle_alpha 90.00000
_cell_angle_beta  90.00000
_cell_angle_gamma 90.00000

loop_
_space_group_symop_id
_space_group_symop_operation_xyz
1 x,y,z
2 x,-y,-z
3 -x+1/2,y,-z+1/2
4 -x+1/2,-y,z+1/2
5 -x,-y,-z
6 -x,y,z
7 x+1/2,-y,z+1/2
8 x+1/2,y,-z+1/2
9 x+1/2,y+1/2,z
10 x+1/2,-y+1/2,-z
11 -x,y+1/2,-z+1/2
12 -x,-y+1/2,z+1/2
13 -x+1/2,-y+1/2,-z
14 -x+1/2,y+1/2,z
15 x,-y+1/2,z+1/2
16 x,y+1/2,-z+1/2

loop_
_atom_site_label
_atom_site_type_symbol
_atom_site_symmetry_multiplicity
_atom_site_Wyckoff_label
_atom_site_fract_x
_atom_site_fract_y
_atom_site_fract_z
_atom_site_occupancy
Ga1 Ga   8 f 0.00000 0.15490 0.08100 1.00000
