# CIF file 

data_findsym-output
_audit_creation_method FINDSYM

_chemical_name_mineral 'gamma plutonium'
_chemical_formula_sum 'Pu'
 
loop_
_publ_author_name
 'W. H. Zachariasen'
 'F. H. Ellinger'
_journal_name_full
;
Acta Crystallographica
;
_journal_volume 8
_journal_year 1955
_journal_page_first 431
_journal_page_last 433
_publ_Section_title
;
 Crystal chemical studies of the 5f-series of elements. XXIV. The crystal structure and thermal expansion of $\gamma$-plutonium
;

_aflow_proto 'A_oF8_70_a' 
_aflow_params 'a,b/a,c/a' 
_aflow_params_values '3.1587,1.82613100326,3.21714629436' 
_aflow_Strukturbericht 'None' 
_aflow_Pearson 'oF8' 

_symmetry_space_group_name_Hall "-F 2uv 2vw"
_symmetry_space_group_name_H-M "F d d d:2"
_symmetry_Int_Tables_number 70

_cell_length_a    3.15870
_cell_length_b    5.76820
_cell_length_c    10.16200
_cell_angle_alpha 90.00000
_cell_angle_beta  90.00000
_cell_angle_gamma 90.00000
 
loop_
_space_group_symop_id
_space_group_symop_operation_xyz
1 x,y,z
2 x,-y+3/4,-z+3/4
3 -x+3/4,y,-z+3/4
4 -x+3/4,-y+3/4,z
5 -x,-y,-z
6 -x,y+1/4,z+1/4
7 x+1/4,-y,z+1/4
8 x+1/4,y+1/4,-z
9 x,y+1/2,z+1/2
10 x,-y+1/4,-z+1/4
11 -x+3/4,y+1/2,-z+1/4
12 -x+3/4,-y+1/4,z+1/2
13 -x,-y+1/2,-z+1/2
14 -x,y+3/4,z+3/4
15 x+1/4,-y+1/2,z+3/4
16 x+1/4,y+3/4,-z+1/2
17 x+1/2,y,z+1/2
18 x+1/2,-y+3/4,-z+1/4
19 -x+1/4,y,-z+1/4
20 -x+1/4,-y+3/4,z+1/2
21 -x+1/2,-y,-z+1/2
22 -x+1/2,y+1/4,z+3/4
23 x+3/4,-y,z+3/4
24 x+3/4,y+1/4,-z+1/2
25 x+1/2,y+1/2,z
26 x+1/2,-y+1/4,-z+3/4
27 -x+1/4,y+1/2,-z+3/4
28 -x+1/4,-y+1/4,z
29 -x+1/2,-y+1/2,-z
30 -x+1/2,y+3/4,z+1/4
31 x+3/4,-y+1/2,z+1/4
32 x+3/4,y+3/4,-z
 
loop_
_atom_site_label
_atom_site_type_symbol
_atom_site_symmetry_multiplicity
_atom_site_Wyckoff_label
_atom_site_fract_x
_atom_site_fract_y
_atom_site_fract_z
_atom_site_occupancy
Pu1 Pu   8 a 0.12500 0.12500 0.12500 1.00000
