# CIF file 

data_findsym-output
_audit_creation_method FINDSYM

_chemical_name_mineral 'Protactinium'
_chemical_formula_sum 'Pa'
 
loop_
_publ_author_name
 'W. H. Zachariasen'
_journal_name_full
;
Acta Crystallographica
;
_journal_volume 12
_journal_year 1959
_journal_page_first 698
_journal_page_last 700
_publ_Section_title
;
 On the crystal structure of protactinium metal
;

# Found in  Donohue, pp. 125-127

_aflow_proto 'A_tI2_139_a' 
_aflow_params 'a,c/a' 
_aflow_params_values '3.932,0.823499491353' 
_aflow_Strukturbericht 'A_a' 
_aflow_Pearson 'tI2' 

_symmetry_space_group_name_Hall "-I 4 2"
_symmetry_space_group_name_H-M "I 4/m m m"
_symmetry_Int_Tables_number 139

_cell_length_a    3.93200
_cell_length_b    3.93200
_cell_length_c    3.23800
_cell_angle_alpha 90.00000
_cell_angle_beta  90.00000
_cell_angle_gamma 90.00000
 
loop_
_space_group_symop_id
_space_group_symop_operation_xyz
1 x,y,z
2 x,-y,-z
3 -x,y,-z
4 -x,-y,z
5 -y,-x,-z
6 -y,x,z
7 y,-x,z
8 y,x,-z
9 -x,-y,-z
10 -x,y,z
11 x,-y,z
12 x,y,-z
13 y,x,z
14 y,-x,-z
15 -y,x,-z
16 -y,-x,z
17 x+1/2,y+1/2,z+1/2
18 x+1/2,-y+1/2,-z+1/2
19 -x+1/2,y+1/2,-z+1/2
20 -x+1/2,-y+1/2,z+1/2
21 -y+1/2,-x+1/2,-z+1/2
22 -y+1/2,x+1/2,z+1/2
23 y+1/2,-x+1/2,z+1/2
24 y+1/2,x+1/2,-z+1/2
25 -x+1/2,-y+1/2,-z+1/2
26 -x+1/2,y+1/2,z+1/2
27 x+1/2,-y+1/2,z+1/2
28 x+1/2,y+1/2,-z+1/2
29 y+1/2,x+1/2,z+1/2
30 y+1/2,-x+1/2,-z+1/2
31 -y+1/2,x+1/2,-z+1/2
32 -y+1/2,-x+1/2,z+1/2
 
loop_
_atom_site_label
_atom_site_type_symbol
_atom_site_symmetry_multiplicity
_atom_site_Wyckoff_label
_atom_site_fract_x
_atom_site_fract_y
_atom_site_fract_z
_atom_site_occupancy
Pa1 Pa   2 a 0.00000 0.00000 0.00000 1.00000
