# CIF file 

data_findsym-output
_audit_creation_method FINDSYM

_chemical_name_mineral 'Hexagonal Laves'
_chemical_formula_sum 'Mg Zn2'
 
loop_
_publ_author_name
 'T. Ohba'
 'Y. Kitano'
 'Y. Komura'
_journal_name_full
;
Acta Crystallographic C
;
_journal_volume 40
_journal_year 1984
_journal_page_first 1
_journal_page_last 5
_publ_Section_title
;
 The charge-density study of the Laves phases, MgZn$_2$ and MgCu$_2$
;

_aflow_proto 'AB2_hP12_194_f_ah' 
_aflow_params 'a,c/a,z2,x3' 
_aflow_params_values '5.223,1.64005360904,0.06286,0.83048' 
_aflow_Strukturbericht 'C14' 
_aflow_Pearson 'hP12' 

_symmetry_space_group_name_Hall "-P 6c 2c"
_symmetry_space_group_name_H-M "P 63/m m c"
_symmetry_Int_Tables_number 194

_cell_length_a    5.22300
_cell_length_b    5.22300
_cell_length_c    8.56600
_cell_angle_alpha 90.00000
_cell_angle_beta  90.00000
_cell_angle_gamma 120.00000
 
loop_
_space_group_symop_id
_space_group_symop_operation_xyz
1 x,y,z
2 x-y,x,z+1/2
3 -y,x-y,z
4 -x,-y,z+1/2
5 -x+y,-x,z
6 y,-x+y,z+1/2
7 x-y,-y,-z
8 x,x-y,-z+1/2
9 y,x,-z
10 -x+y,y,-z+1/2
11 -x,-x+y,-z
12 -y,-x,-z+1/2
13 -x,-y,-z
14 -x+y,-x,-z+1/2
15 y,-x+y,-z
16 x,y,-z+1/2
17 x-y,x,-z
18 -y,x-y,-z+1/2
19 -x+y,y,z
20 -x,-x+y,z+1/2
21 -y,-x,z
22 x-y,-y,z+1/2
23 x,x-y,z
24 y,x,z+1/2
 
loop_
_atom_site_label
_atom_site_type_symbol
_atom_site_symmetry_multiplicity
_atom_site_Wyckoff_label
_atom_site_fract_x
_atom_site_fract_y
_atom_site_fract_z
_atom_site_occupancy
Zn1 Zn   2 a 0.00000 0.00000 0.00000 1.00000
Mg1 Mg   4 f 0.33333 0.66667 0.06286 1.00000
Zn2 Zn   6 h 0.83048 0.16952 0.25000 1.00000
