# CIF file 

data_findsym-output
_audit_creation_method FINDSYM

_chemical_name_mineral ''
_chemical_formula_sum 'Re Si2'
 
loop_
_publ_author_name
 'T. Siegrist'
 'F. Hulliger'
 'G. Travaglini'
_journal_name_full
;
Journal of the Less Common Metals
;
_journal_volume 92
_journal_year 1983
_journal_page_first 119
_journal_page_last 129
_publ_Section_title
;
 The crystal structure and some properties of ReSi$_2$
;

_aflow_proto 'AB2_oI6_71_a_i' 
_aflow_params 'a,b/a,c/a,z2' 
_aflow_params_values '3.144,0.994910941476,2.44179389313,0.339' 
_aflow_Strukturbericht 'None' 
_aflow_Pearson 'oI6' 

_symmetry_space_group_name_Hall "-I 2 2 "
_symmetry_space_group_name_H-M "I m m m"
_symmetry_Int_Tables_number 71

_cell_length_a    3.14400
_cell_length_b    3.12800
_cell_length_c    7.67700
_cell_angle_alpha 90.00000
_cell_angle_beta  90.00000
_cell_angle_gamma 90.00000
 
loop_
_space_group_symop_id
_space_group_symop_operation_xyz
1 x,y,z
2 x,-y,-z
3 -x,y,-z
4 -x,-y,z
5 -x,-y,-z
6 -x,y,z
7 x,-y,z
8 x,y,-z
9 x+1/2,y+1/2,z+1/2
10 x+1/2,-y+1/2,-z+1/2
11 -x+1/2,y+1/2,-z+1/2
12 -x+1/2,-y+1/2,z+1/2
13 -x+1/2,-y+1/2,-z+1/2
14 -x+1/2,y+1/2,z+1/2
15 x+1/2,-y+1/2,z+1/2
16 x+1/2,y+1/2,-z+1/2
 
loop_
_atom_site_label
_atom_site_type_symbol
_atom_site_symmetry_multiplicity
_atom_site_Wyckoff_label
_atom_site_fract_x
_atom_site_fract_y
_atom_site_fract_z
_atom_site_occupancy
Re1 Re   2 a 0.00000 0.00000 0.00000 1.00000
Si1 Si   4 i 0.00000 0.00000 0.33900 1.00000
