# CIF file 

data_findsym-output
_audit_creation_method FINDSYM

_chemical_name_mineral ''
_chemical_formula_sum 'Pd Sn2'
 
loop_
_publ_author_name
 'K. Schubert'
 'H. Pfisterer'
_journal_name_full
;
Zeitschrift f\"{u}r Metallkunde
;
_journal_volume 41
_journal_year 1950
_journal_page_first 433
_journal_page_last 441
_publ_Section_title
;
 Zur Kristallchemie der B-Metall-reichsten Phasen in Legierungen von \"{U}"bergangsmetallen der Eisen- und Platintriaden mit Elementen der vierten Nebengruppe
;

# Found in  Pearson's Handbook IV, p. 4929-4930

_aflow_proto 'AB2_oC24_41_2a_2b' 
_aflow_params 'a,b/a,c/a,z1,z2,x3,y3,z3,x4,y4,z4' 
_aflow_params_values '6.478,1.0,1.87635072553,0.01,0.238,0.342,0.158,0.125,0.25,0.25,-0.125' 
_aflow_Strukturbericht 'C_e' 
_aflow_Pearson 'oC24' 

_symmetry_space_group_name_Hall "A 2 -2ac"
_symmetry_space_group_name_H-M "A b a 2"
_symmetry_Int_Tables_number 41

_cell_length_a    6.47800
_cell_length_b    6.47800
_cell_length_c    12.15500
_cell_angle_alpha 90.00000
_cell_angle_beta  90.00000
_cell_angle_gamma 90.00000
 
loop_
_space_group_symop_id
_space_group_symop_operation_xyz
1 x,y,z
2 -x,-y,z
3 x+1/2,-y,z+1/2
4 -x+1/2,y,z+1/2
5 x,y+1/2,z+1/2
6 -x,-y+1/2,z+1/2
7 x+1/2,-y+1/2,z
8 -x+1/2,y+1/2,z
 
loop_
_atom_site_label
_atom_site_type_symbol
_atom_site_symmetry_multiplicity
_atom_site_Wyckoff_label
_atom_site_fract_x
_atom_site_fract_y
_atom_site_fract_z
_atom_site_occupancy
Pd1 Pd   4 a 0.00000 0.00000 0.01000 1.00000
Pd2 Pd   4 a 0.00000 0.00000 0.23800  1.00000
Sn1 Sn   8 b 0.34200 0.15800 0.12500  1.00000
Sn2 Sn   8 b 0.25000 0.25000 -0.12500  1.00000
