# CIF file 

data_findsym-output
_audit_creation_method FINDSYM

_chemical_name_mineral 'Molybdenite'
_chemical_formula_sum 'Mo S2'
 
loop_
_publ_author_name
 'B. Sch\"{o}nfeld'
 'J. J. Huang'
 'S. C. Moss'
_journal_name_full
;
Acta Crystallographica B
;
_journal_volume 39
_journal_year 1983
_journal_page_first 404
_journal_page_last 407
_publ_Section_title
;
 Anisotropic Mean-Square Displacements (MSD) in single Crystals of 2H- and 3R-MoS$_2$
;

# Found in  AMS Database

_aflow_proto 'AB2_hP6_194_c_f' 
_aflow_params 'a,c/a,z2' 
_aflow_params_values '3.161,3.8895919013,0.6275' 
_aflow_Strukturbericht 'C7' 
_aflow_Pearson 'hP6' 

_symmetry_space_group_name_Hall "-P 6c 2c"
_symmetry_space_group_name_H-M "P 63/m m c"
_symmetry_Int_Tables_number 194

_cell_length_a    3.16100
_cell_length_b    3.16100
_cell_length_c    12.29500
_cell_angle_alpha 90.00000
_cell_angle_beta  90.00000
_cell_angle_gamma 120.00000
 
loop_
_space_group_symop_id
_space_group_symop_operation_xyz
1 x,y,z
2 x-y,x,z+1/2
3 -y,x-y,z
4 -x,-y,z+1/2
5 -x+y,-x,z
6 y,-x+y,z+1/2
7 x-y,-y,-z
8 x,x-y,-z+1/2
9 y,x,-z
10 -x+y,y,-z+1/2
11 -x,-x+y,-z
12 -y,-x,-z+1/2
13 -x,-y,-z
14 -x+y,-x,-z+1/2
15 y,-x+y,-z
16 x,y,-z+1/2
17 x-y,x,-z
18 -y,x-y,-z+1/2
19 -x+y,y,z
20 -x,-x+y,z+1/2
21 -y,-x,z
22 x-y,-y,z+1/2
23 x,x-y,z
24 y,x,z+1/2
 
loop_
_atom_site_label
_atom_site_type_symbol
_atom_site_symmetry_multiplicity
_atom_site_Wyckoff_label
_atom_site_fract_x
_atom_site_fract_y
_atom_site_fract_z
_atom_site_occupancy
Mo1 Mo   2 c 0.33333 0.66667 0.25000 1.00000
S1  S    4 f 0.33333 0.66667 0.62750 1.00000
