# CIF file 

data_findsym-output
_audit_creation_method FINDSYM

_chemical_name_mineral ''
_chemical_formula_sum 'Ca In2'
 
loop_
_publ_author_name
 'A. Iandelli'
_journal_name_full
;
Zeitschrift f\"{u}r anorganische und allgemeine Chemie
;
_journal_volume 330
_journal_year 1964
_journal_page_first 221
_journal_page_last 232
_publ_Section_title
;
 MX$_2$-Verbindungen der Erdalkali- und Seltenen Erdmetalle mit Gallium, Indium und Thallium
;

# Found in  Pearson's Alloys, pp. 499-501

_aflow_proto 'AB2_hP6_194_b_f' 
_aflow_params 'a,c/a,z2' 
_aflow_params_values '4.895,1.58324821246,0.045' 
_aflow_Strukturbericht 'None' 
_aflow_Pearson 'hP6' 

_symmetry_space_group_name_Hall "-P 6c 2c"
_symmetry_space_group_name_H-M "P 63/m m c"
_symmetry_Int_Tables_number 194

_cell_length_a    4.89500
_cell_length_b    4.89500
_cell_length_c    7.75000
_cell_angle_alpha 90.00000
_cell_angle_beta  90.00000
_cell_angle_gamma 120.00000
 
loop_
_space_group_symop_id
_space_group_symop_operation_xyz
1 x,y,z
2 x-y,x,z+1/2
3 -y,x-y,z
4 -x,-y,z+1/2
5 -x+y,-x,z
6 y,-x+y,z+1/2
7 x-y,-y,-z
8 x,x-y,-z+1/2
9 y,x,-z
10 -x+y,y,-z+1/2
11 -x,-x+y,-z
12 -y,-x,-z+1/2
13 -x,-y,-z
14 -x+y,-x,-z+1/2
15 y,-x+y,-z
16 x,y,-z+1/2
17 x-y,x,-z
18 -y,x-y,-z+1/2
19 -x+y,y,z
20 -x,-x+y,z+1/2
21 -y,-x,z
22 x-y,-y,z+1/2
23 x,x-y,z
24 y,x,z+1/2
 
loop_
_atom_site_label
_atom_site_type_symbol
_atom_site_symmetry_multiplicity
_atom_site_Wyckoff_label
_atom_site_fract_x
_atom_site_fract_y
_atom_site_fract_z
_atom_site_occupancy
Ca1 Ca   2 b 0.00000 0.00000 0.25000 1.00000
In1 In   4 f 0.33333 0.66667 0.04500 1.00000
