# CIF file
data_findsym-output
_audit_creation_method FINDSYM

_chemical_name_mineral 'CsPr[MoO4]2'
_chemical_formula_sum 'Cs Mo2 O8 Pr'

loop_
_publ_author_name
 'V. A. Vinokurov'
 'P. V. Klevtsov'
_journal_name_full_name
;
 Soviet Physics Crystallography
;
_journal_volume 17
_journal_year 1972
_journal_page_first 102
_journal_page_last 106
_publ_Section_title
;
 Polymorphism and crystallization of binary cesium-rare earth molybdates CsLn(MoO$_{4}$)$_{2}$
;

# Found in Pearson's Crystal Data - Crystal Structure Database for Inorganic Compounds, 2013

_aflow_title 'CsPr[MoO$_{4}$]$_{2}$ Structure'
_aflow_proto 'AB2C8D_oP24_49_g_q_2qr_e'
_aflow_params 'a,b/a,c/a,x_{3},y_{3},x_{4},y_{4},x_{5},y_{5},x_{6},y_{6},z_{6}'
_aflow_params_values '6.3302356554,1.0,1.50710900473,0.5184,0.7996,0.258,-0.0697,0.3652,0.6307,0.2617,0.1943,0.8286'
_aflow_Strukturbericht 'None'
_aflow_Pearson 'oP24'

_cell_length_a    6.3302356554
_cell_length_b    6.3302356554
_cell_length_c    9.5403551583
_cell_angle_alpha 90.0000000000
_cell_angle_beta  90.0000000000
_cell_angle_gamma 90.0000000000
 
_symmetry_space_group_name_H-M "P 2/c 2/c 2/m"
_symmetry_Int_Tables_number 49
 
loop_
_space_group_symop_id
_space_group_symop_operation_xyz
1 x,y,z
2 x,-y,-z+1/2
3 -x,y,-z+1/2
4 -x,-y,z
5 -x,-y,-z
6 -x,y,z+1/2
7 x,-y,z+1/2
8 x,y,-z
 
loop_
_atom_site_label
_atom_site_type_symbol
_atom_site_symmetry_multiplicity
_atom_site_Wyckoff_label
_atom_site_fract_x
_atom_site_fract_y
_atom_site_fract_z
_atom_site_occupancy
Pr1 Pr   2 e 0.00000 0.00000  0.25000 1.00000
Cs1 Cs   2 g 0.00000 0.50000  0.25000 1.00000
Mo1 Mo   4 q 0.51840 0.79960  0.00000 1.00000
O1  O    4 q 0.25800 -0.06970 0.00000 1.00000
O2  O    4 q 0.36520 0.63070  0.00000 1.00000
O3  O    8 r 0.26170 0.19430  0.82860 1.00000
