# CIF file
data_findsym-output
_audit_creation_method FINDSYM

_chemical_name_mineral 'AsPh4CeS8P4Me8'
_chemical_formula_sum 'As C32 Ce P4 S8'

loop_
_publ_author_name
 'S. Spiliadis'
 'A. A. Pinkerton'
 'D. Schwarzenbach'
_journal_year 1982
_publ_Section_title
;
 Crystal and molecular structures of [AsPh$_{4}$][$Ln$(S$_{2}$PMe$_{2}$)$_{4}$]($Ln$ = Ce or Tm) and their comparison with results obtained from paramagnetic nuclear magnetic resonance data in solution
;

# Found in The Fascination of Crystals and Symmetry, 2014

_aflow_title 'AsPh$_{4}$CeS$_{8}$P$_{4}$Me$_{8}$ Structure'
_aflow_proto 'AB32CD4E8_tP184_93_i_16p_af_2p_4p'
_aflow_params 'a,c/a,z_{3},x_{4},y_{4},z_{4},x_{5},y_{5},z_{5},x_{6},y_{6},z_{6},x_{7},y_{7},z_{7},x_{8},y_{8},z_{8},x_{9},y_{9},z_{9},x_{10},y_{10},z_{10},x_{11},y_{11},z_{11},x_{12},y_{12},z_{12},x_{13},y_{13},z_{13},x_{14},y_{14},z_{14},x_{15},y_{15},z_{15},x_{16},y_{16},z_{16},x_{17},y_{17},z_{17},x_{18},y_{18},z_{18},x_{19},y_{19},z_{19},x_{20},y_{20},z_{20},x_{21},y_{21},z_{21},x_{22},y_{22},z_{22},x_{23},y_{23},z_{23},x_{24},y_{24},z_{24},x_{25},y_{25},z_{25}'
_aflow_params_values '11.461,2.92112381119,0.62279,0.369,0.14,0.5403,0.251,0.129,0.6173,0.138,0.647,0.7882,0.215,0.58,0.8645,0.138,0.517,0.591,0.132,0.58,0.5541,0.244,0.605,0.536,0.345,0.554,0.5495,0.343,0.485,0.5842,0.237,0.463,0.6031,0.008,0.366,0.6554,0.077,0.371,0.6892,0.082,0.273,0.7151,0.023,0.17,0.7031,-0.04,0.165,0.6678,-0.05,0.265,0.6408,0.2272,0.1019,0.5636,0.2601,0.5802,0.812,0.1021,0.205,0.5436,0.1936,-0.0676,0.5558,0.404,0.6758,0.8049,0.2809,0.418,0.7912'
_aflow_Strukturbericht 'None'
_aflow_Pearson 'tP184'

_cell_length_a    11.4610000000
_cell_length_b    11.4610000000
_cell_length_c    33.4790000000
_cell_angle_alpha 90.0000000000
_cell_angle_beta  90.0000000000
_cell_angle_gamma 90.0000000000
 
_symmetry_space_group_name_H-M "P 42 2 2"
_symmetry_Int_Tables_number 93
 
loop_
_space_group_symop_id
_space_group_symop_operation_xyz
1 x,y,z
2 x,-y,-z
3 -x,y,-z
4 -x,-y,z
5 -y,-x,-z+1/2
6 -y,x,z+1/2
7 y,-x,z+1/2
8 y,x,-z+1/2
 
loop_
_atom_site_label
_atom_site_type_symbol
_atom_site_symmetry_multiplicity
_atom_site_Wyckoff_label
_atom_site_fract_x
_atom_site_fract_y
_atom_site_fract_z
_atom_site_occupancy
Ce1 Ce   2 a 0.00000  0.00000  0.00000 1.00000
Ce2 Ce   2 f 0.50000  0.50000  0.25000 1.00000
As1 As   4 i 0.00000  0.50000  0.62279 1.00000
C1  C    8 p 0.36900  0.14000  0.54030 1.00000
C2  C    8 p 0.25100  0.12900  0.61730 1.00000
C3  C    8 p 0.13800  0.64700  0.78820 1.00000
C4  C    8 p 0.21500  0.58000  0.86450 1.00000
C5  C    8 p 0.13800  0.51700  0.59100 1.00000
C6  C    8 p 0.13200  0.58000  0.55410 1.00000
C7  C    8 p 0.24400  0.60500  0.53600 1.00000
C8  C    8 p 0.34500  0.55400  0.54950 1.00000
C9  C    8 p 0.34300  0.48500  0.58420 1.00000
C10 C    8 p 0.23700  0.46300  0.60310 1.00000
C11 C    8 p 0.00800  0.36600  0.65540 1.00000
C12 C    8 p 0.07700  0.37100  0.68920 1.00000
C13 C    8 p 0.08200  0.27300  0.71510 1.00000
C14 C    8 p 0.02300  0.17000  0.70310 1.00000
C15 C    8 p -0.04000 0.16500  0.66780 1.00000
C16 C    8 p -0.05000 0.26500  0.64080 1.00000
P1  P    8 p 0.22720  0.10190  0.56360 1.00000
P2  P    8 p 0.26010  0.58020  0.81200 1.00000
S1  S    8 p 0.10210  0.20500  0.54360 1.00000
S2  S    8 p 0.19360  -0.06760 0.55580 1.00000
S3  S    8 p 0.40400  0.67580  0.80490 1.00000
S4  S    8 p 0.28090  0.41800  0.79120 1.00000
