# CIF file 

data_findsym-output
_audit_creation_method FINDSYM

_chemical_name_mineral 'Sodium arsenide'
_chemical_formula_sum 'Na3 As'
 
loop_
_publ_author_name
 'G. Brauer'
 'E. Zintl'
_journal_name_full
;
Zeitschrift f\"{u}r Physikalische Chemie
;
_journal_volume 37B
_journal_year 1937
_journal_page_first 323
_journal_page_last 352
_publ_Section_title
;
 Konstitution von Phosphiden, Arseniden, Antimoniden und Wismutiden des Lithiums, Natriums und Kaliums
;

# Found in  Pearson's Handbook, Vol. I, pp. 1187

_aflow_proto 'AB3_hP8_194_c_bf' 
_aflow_params 'a,c/a,z3' 
_aflow_params_values '5.088,1.76533018868,-0.083' 
_aflow_Strukturbericht 'D0_18' 
_aflow_Pearson 'hP8' 

_symmetry_space_group_name_Hall "-P 6c 2c"
_symmetry_space_group_name_H-M "P 63/m m c"
_symmetry_Int_Tables_number 194

_cell_length_a    5.08800
_cell_length_b    5.08800
_cell_length_c    8.98200
_cell_angle_alpha 90.00000
_cell_angle_beta  90.00000
_cell_angle_gamma 120.00000
 
loop_
_space_group_symop_id
_space_group_symop_operation_xyz
1 x,y,z
2 x-y,x,z+1/2
3 -y,x-y,z
4 -x,-y,z+1/2
5 -x+y,-x,z
6 y,-x+y,z+1/2
7 x-y,-y,-z
8 x,x-y,-z+1/2
9 y,x,-z
10 -x+y,y,-z+1/2
11 -x,-x+y,-z
12 -y,-x,-z+1/2
13 -x,-y,-z
14 -x+y,-x,-z+1/2
15 y,-x+y,-z
16 x,y,-z+1/2
17 x-y,x,-z
18 -y,x-y,-z+1/2
19 -x+y,y,z
20 -x,-x+y,z+1/2
21 -y,-x,z
22 x-y,-y,z+1/2
23 x,x-y,z
24 y,x,z+1/2
 
loop_
_atom_site_label
_atom_site_type_symbol
_atom_site_symmetry_multiplicity
_atom_site_Wyckoff_label
_atom_site_fract_x
_atom_site_fract_y
_atom_site_fract_z
_atom_site_occupancy
Na1 Na   2 b 0.00000 0.00000 0.25000 1.00000
As1 As   2 c 0.33333 0.66667 0.25000 1.00000
Na2 Na   4 f 0.33333 0.66667 -0.08300 1.00000
