# CIF file# This file was generated by FINDSYM
# Harold T. Stokes, Branton J. Campbell, Dorian M. Hatch
# Brigham Young University, Provo, Utah, USA

data_findsym-output
_audit_creation_method FINDSYM

_chemical_name_mineral 'PdSn4'
_chemical_formula_sum 'Pd Sn4'

loop_
_publ_author_name
 'J. Nyl{\\'e}n'
 'F. J. {Garc{\\'i}a Garc{\\'i}a}'
 'B. D. Mosel'
 'R. P{\"o}ttgen'
 'U. H{\"a}ussermann'
_journal_name_full_name
;
 Solid State Sciences
;
_journal_volume 6
_journal_year 2004
_journal_page_first 147
_journal_page_last 155
_publ_Section_title
;
 Structural relationships, phase stability and bonding of compounds PdSn$_{n}$ ($n$ = 2, 3, 4)
;

# Found in Pearson's Crystal Data - Crystal Structure Database for Inorganic Compounds, 2013

_aflow_title 'PdSn$_{4}$ Structure'
_aflow_proto 'AB4_oC20_68_a_i'
_aflow_params 'a,b/a,c/a,x_{2},y_{2},z_{2}'
_aflow_params_values '6.44222,1.77662048176,0.991771470083,0.3313,0.1233,0.0801'
_aflow_Strukturbericht 'None'
_aflow_Pearson 'oC20'

_symmetry_space_group_name_H-M "C 2/c 2/c 2/a (origin choice 2)"
_symmetry_Int_Tables_number 68

_cell_length_a    6.44222
_cell_length_b    11.44538
_cell_length_c    6.38921
_cell_angle_alpha 90.00000
_cell_angle_beta  90.00000
_cell_angle_gamma 90.00000

loop_
_space_group_symop_id
_space_group_symop_operation_xyz
1 x,y,z
2 x,-y+1/2,-z+1/2
3 -x,y,-z+1/2
4 -x,-y+1/2,z
5 -x+1/2,-y+1/2,-z
6 -x+1/2,y,z+1/2
7 x+1/2,-y+1/2,z+1/2
8 x+1/2,y,-z
9 x+1/2,y+1/2,z
10 x+1/2,-y,-z+1/2
11 -x+1/2,y+1/2,-z+1/2
12 -x+1/2,-y,z
13 -x,-y,-z
14 -x,y+1/2,z+1/2
15 x,-y,z+1/2
16 x,y+1/2,-z

loop_
_atom_site_label
_atom_site_type_symbol
_atom_site_symmetry_multiplicity
_atom_site_Wyckoff_label
_atom_site_fract_x
_atom_site_fract_y
_atom_site_fract_z
_atom_site_occupancy
Pd1 Pd   4 a 0.00000 0.25000 0.25000 1.00000
Sn1 Sn  16 i 0.33130 0.12330 0.08010 1.00000
