# CIF file 

data_findsym-output
_audit_creation_method FINDSYM

_chemical_name_mineral ''
_chemical_formula_sum 'Ho Co Ga5'
 
loop_
_publ_author_name
 'Yu.N Grin'
 'Ya.P. Yarmolyuk'
 'E. I. Gladyshevskii'
_journal_name_full
;
Kristallografiya
;
_journal_volume 24
_journal_year 1979
_journal_page_first 242
_journal_page_last 246
_publ_Section_title
;
 Kristallicheskie struktury soedinenij R$_2$COGa$_8$ (R=Sm, Gd, Tb, Dy, Ho, Er, Tm, Lu, Y) i RCoGa$_5$ (R=Gd, Tb, Dy, Ho, Er, Tm, Lu, Y)
;

# Found in  http://materials.springer.com/isp/crystallographic/docs/sd_1406905

_aflow_proto 'AB5C_tP7_123_b_ci_a' 
_aflow_params 'a,c/a,z4' 
_aflow_params_values '4.207,1.61516520086,0.312' 
_aflow_Strukturbericht 'None' 
_aflow_Pearson 'tP7' 

_symmetry_space_group_name_Hall "-P 4 2"
_symmetry_space_group_name_H-M "P 4/m m m"
_symmetry_Int_Tables_number 123

_cell_length_a    4.20700
_cell_length_b    4.20700
_cell_length_c    6.79500
_cell_angle_alpha 90.00000
_cell_angle_beta  90.00000
_cell_angle_gamma 90.00000
 
loop_
_space_group_symop_id
_space_group_symop_operation_xyz
1 x,y,z
2 x,-y,-z
3 -x,y,-z
4 -x,-y,z
5 -y,-x,-z
6 -y,x,z
7 y,-x,z
8 y,x,-z
9 -x,-y,-z
10 -x,y,z
11 x,-y,z
12 x,y,-z
13 y,x,z
14 y,-x,-z
15 -y,x,-z
16 -y,-x,z
 
loop_
_atom_site_label
_atom_site_type_symbol
_atom_site_symmetry_multiplicity
_atom_site_Wyckoff_label
_atom_site_fract_x
_atom_site_fract_y
_atom_site_fract_z
_atom_site_occupancy
Ho1 Ho   1 a 0.00000 0.00000 0.00000 1.00000
Co1 Co   1 b 0.00000 0.00000 0.50000 1.00000
Ga1 Ga   1 c 0.50000 0.50000 0.00000 1.00000
Ga2 Ga   4 i 0.00000 0.50000 0.31200 1.00000
