# CIF file 

data_findsym-output
_audit_creation_method FINDSYM

_chemical_name_mineral ''
_chemical_formula_sum 'As Ti'
 
loop_
_publ_author_name
 'K. Bachmayer'
 'H. Nowotny'
 'A. Kohl'
_journal_name_full
;
Monatshefte f\"{u}r Chemie und verwandte Teile anderer Wissenschaften
;
_journal_volume 86
_journal_year 1955
_journal_page_first 39
_journal_page_last 43
_publ_Section_title
;
 Die Struktur von TiAs
;

# Found in  Wyckoff, Vol. I, pp. 146-149

_aflow_proto 'AB_hP8_194_ad_f' 
_aflow_params 'a,c/a,z3' 
_aflow_params_values '3.64,3.37362637363,0.125' 
_aflow_Strukturbericht 'B_i' 
_aflow_Pearson 'hP8' 

_symmetry_space_group_name_Hall "-P 6c 2c"
_symmetry_space_group_name_H-M "P 63/m m c"
_symmetry_Int_Tables_number 194

_cell_length_a    3.64000
_cell_length_b    3.64000
_cell_length_c    12.28000
_cell_angle_alpha 90.00000
_cell_angle_beta  90.00000
_cell_angle_gamma 120.00000
 
loop_
_space_group_symop_id
_space_group_symop_operation_xyz
1 x,y,z
2 x-y,x,z+1/2
3 -y,x-y,z
4 -x,-y,z+1/2
5 -x+y,-x,z
6 y,-x+y,z+1/2
7 x-y,-y,-z
8 x,x-y,-z+1/2
9 y,x,-z
10 -x+y,y,-z+1/2
11 -x,-x+y,-z
12 -y,-x,-z+1/2
13 -x,-y,-z
14 -x+y,-x,-z+1/2
15 y,-x+y,-z
16 x,y,-z+1/2
17 x-y,x,-z
18 -y,x-y,-z+1/2
19 -x+y,y,z
20 -x,-x+y,z+1/2
21 -y,-x,z
22 x-y,-y,z+1/2
23 x,x-y,z
24 y,x,z+1/2
 
loop_
_atom_site_label
_atom_site_type_symbol
_atom_site_symmetry_multiplicity
_atom_site_Wyckoff_label
_atom_site_fract_x
_atom_site_fract_y
_atom_site_fract_z
_atom_site_occupancy
As1 As   2 a 0.00000 0.00000 0.00000 1.00000
As2 As   2 d 0.33333 0.66667 0.75000 1.00000
Ti1 Ti   4 f 0.33333 0.66667 0.12500 1.00000
