# CIF file

data_findsym-output
_audit_creation_method FINDSYM

_chemical_name_mineral 'Modderite'
_chemical_formula_sum 'Co As'

loop_
_publ_author_name
 'P. S. Lyman'
 'C. T. Prewitt'
_journal_name_full
;
Acta Crystallographica B
;
_journal_volume 40
_journal_year 1984
_journal_page_first 14
_journal_page_last 20
_publ_Section_title
;
 Room- and high-pressure crystal chemistry of CoAs and FeAs
;

_aflow_proto 'AB_oP8_33_a_a' 
_aflow_params 'a,b/a,c/a,x1,y1,z1,x2,y2,z2' 
_aflow_params_values '5.2857,1.11007056776,0.659950432298,0.1996,0.5867,0.2506,0.002,0.2003,0.25' 
_aflow_Strukturbericht 'None' 
_aflow_Pearson 'oP8' 

_symmetry_space_group_name_Hall "P 2c -2n"
_symmetry_space_group_name_H-M "P n a 21"
_symmetry_Int_Tables_number 33

_cell_length_a    5.28570
_cell_length_b    5.86750
_cell_length_c    3.48830
_cell_angle_alpha 90.00000
_cell_angle_beta  90.00000
_cell_angle_gamma 90.00000

loop_
_space_group_symop_id
_space_group_symop_operation_xyz
1 x,y,z
2 -x,-y,z+1/2
3 -x+1/2,y+1/2,z+1/2
4 x+1/2,-y+1/2,z

loop_
_atom_site_label
_atom_site_type_symbol
_atom_site_symmetry_multiplicity
_atom_site_Wyckoff_label
_atom_site_fract_x
_atom_site_fract_y
_atom_site_fract_z
_atom_site_occupancy
As1 As   4 a 0.19960 0.58670 0.25060 1.00000
Co1 Co   4 a 0.00200 0.20030 0.25000 1.00000
