# CIF file
data_findsym-output
_audit_creation_method FINDSYM

_chemical_name_mineral 'FeS'
_chemical_formula_sum 'Fe S'

loop_
_publ_author_name
 'M. Wintenberger'
 'B. Srour'
 'C. Meyer'
 'F. Hartmannboutron'
 'Y. Gros'
 'J. L. Buevoz'
_journal_name_full_name
;
 Acta Crystallographica Section A: Foundations and Advances
;
_journal_volume 34
_journal_year 1978
_journal_page_first S318
_journal_page_last S318
_publ_Section_title
;
 First order transitions and magnetic-structure of zincblende-type iron sulfide
;

# Found in Pearson's Crystal Data - Crystal Structure Database for Inorganic Compounds, 2013

_aflow_title 'FeS (Low-temperature) Structure'
_aflow_proto 'AB_oF8_22_a_c'
_aflow_params 'a,b/a,c/a'
_aflow_params_values '5.5400291632,0.990433212996,0.937725631773'
_aflow_Strukturbericht 'None'
_aflow_Pearson 'oF8'

_cell_length_a    5.5400291632
_cell_length_b    5.4870288842
_cell_length_c    5.1950273471
_cell_angle_alpha 90.0000000000
_cell_angle_beta  90.0000000000
_cell_angle_gamma 90.0000000000
 
_symmetry_space_group_name_H-M "F 2 2 2"
_symmetry_Int_Tables_number 22
 
loop_
_space_group_symop_id
_space_group_symop_operation_xyz
1 x,y,z
2 x,-y,-z
3 -x,y,-z
4 -x,-y,z
5 x,y+1/2,z+1/2
6 x,-y+1/2,-z+1/2
7 -x,y+1/2,-z+1/2
8 -x,-y+1/2,z+1/2
9 x+1/2,y,z+1/2
10 x+1/2,-y,-z+1/2
11 -x+1/2,y,-z+1/2
12 -x+1/2,-y,z+1/2
13 x+1/2,y+1/2,z
14 x+1/2,-y+1/2,-z
15 -x+1/2,y+1/2,-z
16 -x+1/2,-y+1/2,z
 
loop_
_atom_site_label
_atom_site_type_symbol
_atom_site_symmetry_multiplicity
_atom_site_Wyckoff_label
_atom_site_fract_x
_atom_site_fract_y
_atom_site_fract_z
_atom_site_occupancy
Fe1 Fe   4 a 0.00000 0.00000 0.00000 1.00000
S1  S    4 c 0.25000 0.25000 0.25000 1.00000
