# CIF file 

data_findsym-output
_audit_creation_method FINDSYM

_chemical_name_mineral 'Iron Boride'
_chemical_formula_sum 'Fe B'
 
loop_
_publ_author_name
 'Sterling B. Hendricks'
 'Peter R. Kosting'
_journal_name_full
;
Zeitschrift f\"{u}r Kristallographie - Crystalline Materials
;
_journal_volume 74
_journal_year 1930
_journal_page_first 511
_journal_page_last 533
_publ_Section_title
;
 The Crystal Structure of Fe$_2$P, Fe$_2$N, Fe$_3$N and FeB
;

# Found in  AMS Database

_aflow_proto 'AB_oP8_62_c_c' 
_aflow_params 'a,b/a,c/a,x1,z1,x2,z2' 
_aflow_params_values '5.495,0.536123748863,0.737579617834,0.125,0.69,-0.18,0.125' 
_aflow_Strukturbericht 'B27' 
_aflow_Pearson 'oP8' 

_symmetry_space_group_name_Hall "-P 2ac 2n"
_symmetry_space_group_name_H-M "P n m a"
_symmetry_Int_Tables_number 62

_cell_length_a    5.49500
_cell_length_b    2.94600
_cell_length_c    4.05300
_cell_angle_alpha 90.00000
_cell_angle_beta  90.00000
_cell_angle_gamma 90.00000
 
loop_
_space_group_symop_id
_space_group_symop_operation_xyz
1 x,y,z
2 x+1/2,-y+1/2,-z+1/2
3 -x,y+1/2,-z
4 -x+1/2,-y,z+1/2
5 -x,-y,-z
6 -x+1/2,y+1/2,z+1/2
7 x,-y+1/2,z
8 x+1/2,y,-z+1/2
 
loop_
_atom_site_label
_atom_site_type_symbol
_atom_site_symmetry_multiplicity
_atom_site_Wyckoff_label
_atom_site_fract_x
_atom_site_fract_y
_atom_site_fract_z
_atom_site_occupancy
B1  B    4 c 0.12500 0.25000 0.69000 1.00000
Fe1 Fe   4 c -0.18000 0.25000 0.12500 1.00000
