# CIF file
data_findsym-output
_audit_creation_method FINDSYM

_chemical_name_mineral 'KBO2'
_chemical_formula_sum 'B K O2'

loop_
_publ_author_name
 'W. Schneider'
 'G. B. Carpenter'
_journal_name_full_name
;
 Acta Crystallographica Section B: Structural Science
;
_journal_volume 26
_journal_year 1970
_journal_page_first 1189
_journal_page_last 1191
_publ_Section_title
;
 Bond lengths and thermal parameters of potassium metaborate, K$_{3}$B$_{3}$O$_{6}$
;

# Found in Landolt-B\"{o}rnstein - Group III Condensed Matter (Numerical Data and Functional Relationships in Science and Technology), 2007

_aflow_title 'KBO$_{2}$ ($F5_{13}$) Structure'
_aflow_proto 'ABC2_hR24_167_e_e_2e'
_aflow_params 'a,c/a,x_{1},x_{2},x_{3},x_{4}'
_aflow_params_values '12.76,0.575235109718,1.1389,0.8113,1.0343,0.3584'
_aflow_Strukturbericht '$F5_{13}$'
_aflow_Pearson 'hR24'

_symmetry_space_group_name_H-M "R -3 2/c (hexagonal axes)"
_symmetry_Int_Tables_number 167
 
_cell_length_a    12.76000
_cell_length_b    12.76000
_cell_length_c    7.34000
_cell_angle_alpha 90.00000
_cell_angle_beta  90.00000
_cell_angle_gamma 120.00000
 
loop_
_space_group_symop_id
_space_group_symop_operation_xyz
1 x,y,z
2 -y,x-y,z
3 -x+y,-x,z
4 y,x,-z+1/2
5 -x,-x+y,-z+1/2
6 x-y,-y,-z+1/2
7 -x,-y,-z
8 y,-x+y,-z
9 x-y,x,-z
10 -y,-x,z+1/2
11 x,x-y,z+1/2
12 -x+y,y,z+1/2
13 x+1/3,y+2/3,z+2/3
14 -y+1/3,x-y+2/3,z+2/3
15 -x+y+1/3,-x+2/3,z+2/3
16 y+1/3,x+2/3,-z+1/6
17 -x+1/3,-x+y+2/3,-z+1/6
18 x-y+1/3,-y+2/3,-z+1/6
19 -x+1/3,-y+2/3,-z+2/3
20 y+1/3,-x+y+2/3,-z+2/3
21 x-y+1/3,x+2/3,-z+2/3
22 -y+1/3,-x+2/3,z+1/6
23 x+1/3,x-y+2/3,z+1/6
24 -x+y+1/3,y+2/3,z+1/6
25 x+2/3,y+1/3,z+1/3
26 -y+2/3,x-y+1/3,z+1/3
27 -x+y+2/3,-x+1/3,z+1/3
28 y+2/3,x+1/3,-z+5/6
29 -x+2/3,-x+y+1/3,-z+5/6
30 x-y+2/3,-y+1/3,-z+5/6
31 -x+2/3,-y+1/3,-z+1/3
32 y+2/3,-x+y+1/3,-z+1/3
33 x-y+2/3,x+1/3,-z+1/3
34 -y+2/3,-x+1/3,z+5/6
35 x+2/3,x-y+1/3,z+5/6
36 -x+y+2/3,y+1/3,z+5/6
 
loop_
_atom_site_label
_atom_site_type_symbol
_atom_site_symmetry_multiplicity
_atom_site_Wyckoff_label
_atom_site_fract_x
_atom_site_fract_y
_atom_site_fract_z
_atom_site_occupancy
B1 B  18 e 0.88890 0.00000 0.25000 1.00000
K1 K  18 e 0.56130 0.00000 0.25000 1.00000
O1 O  18 e 0.78430 0.00000 0.25000 1.00000
O2 O  18 e 0.10840 0.00000 0.25000 1.00000
