# CIF file
data_findsym-output
_audit_creation_method FINDSYM

_chemical_name_mineral 'CuBrSe3'
_chemical_formula_sum 'Br Cu Se3'

loop_
_publ_author_name
 'H. M. Haendler'
 'P. M. Carkner'
_journal_name_full_name
;
 Journal of Solid State Chemistry
;
_journal_volume 29
_journal_year 1979
_journal_page_first 35
_journal_page_last 39
_publ_Section_title
;
 The crystal structure of copper bromide triselenide, CuBrSe$_{3}$
;

# Found in Pearson's Crystal Data - Crystal Structure Database for Inorganic Compounds, 2013

_aflow_title 'CuBrSe$_{3}$ Structure'
_aflow_proto 'ABC3_oP20_53_e_g_hi'
_aflow_params 'a,b/a,c/a,x_{1},y_{2},y_{3},z_{3},x_{4},y_{4},z_{4}'
_aflow_params_values '14.3630679002,0.312469539787,0.535821207264,0.6826,0.2856,0.3458,0.2708,0.6247,0.6057,0.3575'
_aflow_Strukturbericht 'None'
_aflow_Pearson 'oP20'

_cell_length_a    14.3630679002
_cell_length_b    4.4880212167
_cell_length_c    7.6960363823
_cell_angle_alpha 90.0000000000
_cell_angle_beta  90.0000000000
_cell_angle_gamma 90.0000000000
 
_symmetry_space_group_name_H-M "P 2/m 2/n 21/a"
_symmetry_Int_Tables_number 53
 
loop_
_space_group_symop_id
_space_group_symop_operation_xyz
1 x,y,z
2 x,-y,-z
3 -x+1/2,y,-z+1/2
4 -x+1/2,-y,z+1/2
5 -x,-y,-z
6 -x,y,z
7 x+1/2,-y,z+1/2
8 x+1/2,y,-z+1/2
 
loop_
_atom_site_label
_atom_site_type_symbol
_atom_site_symmetry_multiplicity
_atom_site_Wyckoff_label
_atom_site_fract_x
_atom_site_fract_y
_atom_site_fract_z
_atom_site_occupancy
Br1 Br   4 e 0.68260 0.00000 0.00000 1.00000
Cu1 Cu   4 g 0.25000 0.28560 0.25000 1.00000
Se1 Se   4 h 0.00000 0.34580 0.27080 1.00000
Se2 Se   8 i 0.62470 0.60570 0.35750 1.00000
