# CIF file 

data_findsym-output
_audit_creation_method FINDSYM

_chemical_name_mineral ''
_chemical_formula_sum 'Li B C'
 
loop_
_publ_author_name
 'Michael W\"{o}rle'
 'Reinhard Nesper'
 'Gunter Mair'
 'Martin Schwarz'
 'Hans Georg Von Schnering'
_journal_name_full
;
Zeitschrift f\"{u}r anorganische und allgemeine Chemie
;
_journal_volume 621
_journal_year 1995
_journal_page_first 1153
_journal_page_last 1159
_publ_Section_title
;
 LiBC -- ein vollst\"{a}ndig interkalierter Heterographit
;

_aflow_proto 'ABC_hP6_194_c_d_a' 
_aflow_params 'a,c/a' 
_aflow_params_values '2.752,2.56468023256' 
_aflow_Strukturbericht 'None' 
_aflow_Pearson 'hP6' 

_symmetry_space_group_name_Hall "-P 6c 2c"
_symmetry_space_group_name_H-M "P 63/m m c"
_symmetry_Int_Tables_number 194

_cell_length_a    2.75200
_cell_length_b    2.75200
_cell_length_c    7.05800
_cell_angle_alpha 90.00000
_cell_angle_beta  90.00000
_cell_angle_gamma 120.00000
 
loop_
_space_group_symop_id
_space_group_symop_operation_xyz
1 x,y,z
2 x-y,x,z+1/2
3 -y,x-y,z
4 -x,-y,z+1/2
5 -x+y,-x,z
6 y,-x+y,z+1/2
7 x-y,-y,-z
8 x,x-y,-z+1/2
9 y,x,-z
10 -x+y,y,-z+1/2
11 -x,-x+y,-z
12 -y,-x,-z+1/2
13 -x,-y,-z
14 -x+y,-x,-z+1/2
15 y,-x+y,-z
16 x,y,-z+1/2
17 x-y,x,-z
18 -y,x-y,-z+1/2
19 -x+y,y,z
20 -x,-x+y,z+1/2
21 -y,-x,z
22 x-y,-y,z+1/2
23 x,x-y,z
24 y,x,z+1/2
 
loop_
_atom_site_label
_atom_site_type_symbol
_atom_site_symmetry_multiplicity
_atom_site_Wyckoff_label
_atom_site_fract_x
_atom_site_fract_y
_atom_site_fract_z
_atom_site_occupancy
Li1 Li   2 a 0.00000 0.00000 0.00000 1.00000
B1  B    2 c 0.33333 0.66667 0.25000 1.00000
C1  C    2 d 0.33333 0.66667 0.75000 1.00000
