# CIF file
data_findsym-output
_audit_creation_method FINDSYM

_chemical_name_mineral 'KAg[CO3]'
_chemical_formula_sum 'Ag C K O3'

loop_
_publ_author_name
 'Y.-Q. Zheng'
 'L.-X. Zhou'
 'J.-L. Lin'
 'S.-W. Zhang'
_journal_name_full_name
;
 Zeitschrift f{\"u}r Kristallographie - New Crystal Structures
;
_journal_volume 215
_journal_year 2000
_journal_page_first 467
_journal_page_last 468
_publ_Section_title
;
 Refinement of the crystal structure of potassium {\it catena}--carbonato--argentate(I), K[Ag(CO$_{3}$)]
;

# Found in Pearson's Crystal Data - Crystal Structure Database for Inorganic Compounds, 2013

_aflow_title 'KAg[CO$_{3}$] Structure'
_aflow_proto 'ABCD3_oI48_73_d_e_e_ef'
_aflow_params 'a,b/a,c/a,y_{1},z_{2},z_{3},z_{4},x_{5},y_{5},z_{5}'
_aflow_params_values '5.7750411261,1.02926406926,3.53056277057,0.63427,0.3734,0.18032,0.311,0.1349,0.6124,0.0967'
_aflow_Strukturbericht 'None'
_aflow_Pearson 'oI48'

_cell_length_a    5.7750411261
_cell_length_b    5.9440423296
_cell_length_c    20.3891451983
_cell_angle_alpha 90.0000000000
_cell_angle_beta  90.0000000000
_cell_angle_gamma 90.0000000000
 
_symmetry_space_group_name_H-M "I 21/b 21/c 21/a"
_symmetry_Int_Tables_number 73
 
loop_
_space_group_symop_id
_space_group_symop_operation_xyz
1 x,y,z
2 x,-y,-z+1/2
3 -x+1/2,y,-z
4 -x,-y+1/2,z
5 -x,-y,-z
6 -x,y,z+1/2
7 x+1/2,-y,z
8 x,y+1/2,-z
9 x+1/2,y+1/2,z+1/2
10 x+1/2,-y+1/2,-z
11 -x,y+1/2,-z+1/2
12 -x+1/2,-y,z+1/2
13 -x+1/2,-y+1/2,-z+1/2
14 -x+1/2,y+1/2,z
15 x,-y+1/2,z+1/2
16 x+1/2,y,-z+1/2
 
loop_
_atom_site_label
_atom_site_type_symbol
_atom_site_symmetry_multiplicity
_atom_site_Wyckoff_label
_atom_site_fract_x
_atom_site_fract_y
_atom_site_fract_z
_atom_site_occupancy
Ag1 Ag   8 d 0.25000 0.63427 0.00000 1.00000
C1  C    8 e 0.00000 0.25000 0.37340 1.00000
K1  K    8 e 0.00000 0.25000 0.18032 1.00000
O1  O    8 e 0.00000 0.25000 0.31100 1.00000
O2  O   16 f 0.13490 0.61240 0.09670 1.00000
